ITEM: TIMESTEP
100000
ITEM: NUMBER OF ATOMS
400
ITEM: BOX BOUNDS pp pp pp
0.0000000000000000e+00 2.0519567041703080e+01
0.0000000000000000e+00 2.0519567041703080e+01
-5.1298917604257699e-01 5.1298917604257699e-01
ITEM: ATOMS id type xs ys zs
178 1 0.0463536 0.957876 0.5
38 1 0.0897462 0.937801 0.5
338 1 0.204152 0.917025 0.5
304 1 0.183709 0.962372 0.5
4 1 0.281326 0.995212 0.5
320 1 0.330474 0.98549 0.5
140 1 0.328373 0.0940094 0.5
43 1 0.475672 0.991383 0.5
217 1 0.519319 0.973443 0.5
155 1 0.578535 0.968928 0.5
234 1 0.573024 0.121612 0.5
96 1 0.658849 0.0829557 0.5
334 1 0.694109 0.051306 0.5
344 1 0.892398 0.0776643 0.5
29 1 0.962715 0.997008 0.5
197 1 0.110317 0.980247 0.5
337 1 0.138909 0.93943 0.5
87 1 0.237236 0.958732 0.5
371 1 0.446393 0.0436978 0.5
114 1 0.431747 0.0949079 0.5
397 1 0.507675 0.0272509 0.5
189 1 0.606561 0.169942 0.5
110 1 0.71159 0.194551 0.5
235 1 0.691157 0.122156 0.5
135 1 0.735946 0.135987 0.5
203 1 0.932613 0.0387383 0.5
399 1 0.0579258 0.0055199 0.5
26 1 0.106835 0.0262251 0.5
23 1 0.156984 0.00603925 0.5
396 1 0.243944 0.0585923 0.5
312 1 0.286867 0.042812 0.5
167 1 0.238213 0.110495 0.5
220 1 0.40167 0.0575573 0.5
181 1 0.482421 0.0799923 0.5
310 1 0.554883 0.00922882 0.5
106 1 0.674204 0.166313 0.5
147 1 0.620673 0.125578 0.5
277 1 0.799079 0.131683 0.5
349 1 0.911898 0.127138 0.5
254 1 0.0533459 0.053194 0.5
326 1 0.0976393 0.0705234 0.5
388 1 0.146807 0.0595686 0.5
391 1 0.195495 0.032325 0.5
20 1 0.246155 0.216327 0.5
131 1 0.237909 0.00811685 0.5
51 1 0.288172 0.15902 0.5
80 1 0.34113 0.050224 0.5
70 1 0.645957 0.215035 0.5
331 1 0.687657 0.24054 0.5
231 1 0.866289 0.173354 0.5
378 1 0.986611 0.0523656 0.5
137 1 0.027465 0.0958701 0.5
377 1 0.0772941 0.113279 0.5
6 1 0.143451 0.107491 0.5
21 1 0.34079 0.189161 0.5
239 1 0.300852 0.216207 0.5
372 1 0.286265 0.11396 0.5
345 1 0.504297 0.180832 0.5
229 1 0.467933 0.129439 0.5
30 1 0.52947 0.0781364 0.5
69 1 0.690053 0.289463 0.5
264 1 0.755432 0.218336 0.5
46 1 0.81576 0.18055 0.5
2 1 0.829123 0.0697266 0.5
321 1 0.945647 0.0863978 0.5
233 1 0.0711822 0.168627 0.5
32 1 0.191381 0.0917888 0.5
300 1 0.239081 0.159443 0.5
193 1 0.349935 0.138289 0.5
379 1 0.524858 0.132512 0.5
168 1 0.642927 0.266742 0.5
298 1 0.770463 0.172465 0.5
319 1 0.805019 0.234853 0.5
60 1 0.919956 0.176183 0.5
130 1 0.96446 0.162458 0.5
315 1 0.983375 0.118324 0.5
362 1 0.114057 0.147678 0.5
152 1 0.191386 0.142025 0.5
169 1 0.203408 0.192698 0.5
332 1 0.283558 0.263485 0.5
162 1 0.36397 0.230913 0.5
24 1 0.387397 0.177732 0.5
204 1 0.383529 0.102714 0.5
294 1 0.469382 0.220542 0.5
202 1 0.555649 0.170615 0.5
207 1 0.644751 0.313791 0.5
340 1 0.732482 0.31184 0.5
165 1 0.730682 0.260904 0.5
118 1 0.896309 0.216257 0.5
35 1 0.951585 0.214743 0.5
238 1 0.015395 0.163904 0.5
121 1 0.0539447 0.21327 0.5
74 1 0.111816 0.205025 0.5
53 1 0.157065 0.185818 0.5
268 1 0.195576 0.257188 0.5
301 1 0.327265 0.275378 0.5
256 1 0.423695 0.21172 0.5
308 1 0.42076 0.142773 0.5
157 1 0.452329 0.264178 0.5
330 1 0.551307 0.224593 0.5
86 1 0.683111 0.336899 0.5
209 1 0.711792 0.382178 0.5
122 1 0.774344 0.277831 0.5
42 1 0.862924 0.118582 0.5
158 1 0.00637457 0.215943 0.5
250 1 0.0240637 0.262201 0.5
123 1 0.0907291 0.253637 0.5
386 1 0.159853 0.288212 0.5
248 1 0.406103 0.254649 0.5
12 1 0.454032 0.176206 0.5
210 1 0.600521 0.235523 0.5
22 1 0.621495 0.353808 0.5
9 1 0.876247 0.265193 0.5
393 1 0.89869 0.32088 0.5
354 1 0.927916 0.361941 0.5
101 1 0.924427 0.260279 0.5
156 1 0.973814 0.256916 0.5
194 1 0.149587 0.239105 0.5
339 1 0.198782 0.31551 0.5
266 1 0.239399 0.288759 0.5
184 1 0.371103 0.295168 0.5
103 1 0.403268 0.357184 0.5
75 1 0.424041 0.305254 0.5
227 1 0.499447 0.262195 0.5
226 1 0.548468 0.269541 0.5
72 1 0.797643 0.336096 0.5
199 1 0.848727 0.217383 0.5
271 1 0.829745 0.276467 0.5
284 1 0.877692 0.362215 0.5
14 1 0.985635 0.366206 0.5
183 1 0.00116152 0.305878 0.5
3 1 0.115912 0.294559 0.5
241 1 0.150433 0.335649 0.5
398 1 0.250316 0.367143 0.5
306 1 0.301627 0.373669 0.5
85 1 0.356118 0.381226 0.5
283 1 0.482178 0.310815 0.5
351 1 0.598175 0.300063 0.5
83 1 0.695262 0.429505 0.5
267 1 0.754924 0.363148 0.5
389 1 0.84597 0.325298 0.5
139 1 0.947719 0.406009 0.5
82 1 0.992586 0.429235 0.5
15 1 0.94714 0.315523 0.5
149 1 0.0626371 0.29416 0.5
352 1 0.0926611 0.335742 0.5
133 1 0.345453 0.333576 0.5
249 1 0.448731 0.34879 0.5
218 1 0.574813 0.34379 0.5
171 1 0.603702 0.398457 0.5
257 1 0.656703 0.392502 0.5
119 1 0.832698 0.375938 0.5
154 1 0.899089 0.403125 0.5
141 1 0.954104 0.460165 0.5
41 1 0.037126 0.406365 0.5
230 1 0.0745543 0.435587 0.5
288 1 0.0340814 0.356512 0.5
19 1 0.124574 0.375139 0.5
293 1 0.284933 0.330308 0.5
56 1 0.310977 0.464684 0.5
180 1 0.379489 0.445924 0.5
98 1 0.494901 0.366307 0.5
357 1 0.748342 0.419108 0.5
356 1 0.786586 0.464693 0.5
8 1 0.794324 0.407248 0.5
117 1 0.84208 0.430146 0.5
368 1 0.890744 0.453157 0.5
5 1 0.0300129 0.525132 0.5
84 1 0.0317166 0.455162 0.5
129 1 0.0668797 0.487597 0.5
237 1 0.201877 0.380636 0.5
221 1 0.284804 0.419588 0.5
328 1 0.334601 0.426143 0.5
263 1 0.453254 0.399465 0.5
296 1 0.534773 0.316896 0.5
261 1 0.552235 0.392688 0.5
244 1 0.649674 0.442498 0.5
307 1 0.714205 0.514049 0.5
201 1 0.73684 0.468745 0.5
134 1 0.814691 0.502571 0.5
136 1 0.856373 0.480278 0.5
65 1 0.994399 0.490929 0.5
223 1 0.113577 0.484795 0.5
79 1 0.0773967 0.383391 0.5
302 1 0.2502 0.463041 0.5
39 1 0.407905 0.411543 0.5
247 1 0.419695 0.582279 0.5
314 1 0.545512 0.438868 0.5
174 1 0.60371 0.446443 0.5
97 1 0.671407 0.580015 0.5
151 1 0.938005 0.504915 0.5
222 1 0.928701 0.549201 0.5
260 1 0.0832527 0.53618 0.5
206 1 0.120813 0.435382 0.5
71 1 0.162621 0.403949 0.5
278 1 0.220089 0.425228 0.5
111 1 0.290161 0.50822 0.5
91 1 0.452819 0.446882 0.5
127 1 0.501118 0.461153 0.5
313 1 0.503141 0.415695 0.5
390 1 0.677088 0.483379 0.5
159 1 0.765703 0.508247 0.5
265 1 0.798166 0.546446 0.5
145 1 0.845641 0.536154 0.5
89 1 0.890448 0.51758 0.5
99 1 0.98144 0.539977 0.5
291 1 0.130604 0.536222 0.5
48 1 0.174152 0.510923 0.5
125 1 0.167133 0.457732 0.5
172 1 0.204991 0.550098 0.5
187 1 0.225698 0.505259 0.5
289 1 0.331554 0.531296 0.5
252 1 0.497208 0.625209 0.5
292 1 0.486213 0.541484 0.5
281 1 0.619738 0.501215 0.5
370 1 0.662505 0.529204 0.5
27 1 0.626928 0.558285 0.5
385 1 0.96639 0.585705 0.5
280 1 0.0140268 0.573399 0.5
214 1 0.0585205 0.585073 0.5
297 1 0.168713 0.575876 0.5
219 1 0.260639 0.595579 0.5
95 1 0.261623 0.549014 0.5
40 1 0.464741 0.499079 0.5
384 1 0.519871 0.505568 0.5
303 1 0.566279 0.48343 0.5
200 1 0.579904 0.530731 0.5
182 1 0.580756 0.579578 0.5
92 1 0.723769 0.561454 0.5
146 1 0.860356 0.623259 0.5
336 1 0.88073 0.571271 0.5
33 1 0.000513119 0.618067 0.5
185 1 0.032543 0.655278 0.5
355 1 0.110083 0.580419 0.5
195 1 0.304322 0.570121 0.5
49 1 0.347326 0.596231 0.5
373 1 0.416746 0.531612 0.5
57 1 0.374005 0.555506 0.5
213 1 0.468931 0.585571 0.5
153 1 0.530049 0.558419 0.5
387 1 0.627012 0.658496 0.5
353 1 0.834944 0.584149 0.5
367 1 0.802549 0.635637 0.5
366 1 0.8953 0.653375 0.5
317 1 0.920062 0.596056 0.5
144 1 0.0312318 0.705092 0.5
17 1 0.0772925 0.681445 0.5
287 1 0.141719 0.62644 0.5
205 1 0.298178 0.62082 0.5
34 1 0.421835 0.481874 0.5
342 1 0.39604 0.632287 0.5
335 1 0.512789 0.707849 0.5
269 1 0.539798 0.604405 0.5
67 1 0.582959 0.686253 0.5
343 1 0.631241 0.611897 0.5
236 1 0.677648 0.628754 0.5
316 1 0.724017 0.609974 0.5
76 1 0.95064 0.637063 0.5
47 1 0.0933576 0.635149 0.5
25 1 0.21376 0.600733 0.5
258 1 0.491207 0.750204 0.5
50 1 0.536143 0.657605 0.5
18 1 0.556425 0.725355 0.5
78 1 0.603942 0.728852 0.5
225 1 0.703587 0.684081 0.5
55 1 0.882792 0.704771 0.5
179 1 0.936682 0.679786 0.5
188 1 0.0692314 0.734985 0.5
16 1 0.116385 0.728596 0.5
198 1 0.173729 0.698813 0.5
243 1 0.128423 0.669843 0.5
120 1 0.282225 0.667965 0.5
63 1 0.375906 0.501317 0.5
100 1 0.342326 0.645494 0.5
381 1 0.444844 0.626755 0.5
186 1 0.471586 0.676819 0.5
73 1 0.577619 0.629027 0.5
37 1 0.447496 0.782525 0.5
44 1 0.657061 0.695735 0.5
31 1 0.745143 0.708118 0.5
115 1 0.743842 0.658218 0.5
176 1 0.771139 0.595961 0.5
346 1 0.85342 0.669654 0.5
279 1 0.79438 0.689609 0.5
10 1 0.988252 0.667333 0.5
251 1 0.959772 0.759477 0.5
81 1 0.187034 0.645759 0.5
7 1 0.235667 0.644103 0.5
347 1 0.228873 0.693798 0.5
375 1 0.323158 0.694322 0.5
270 1 0.423113 0.669529 0.5
45 1 0.604766 0.791481 0.5
350 1 0.651445 0.795265 0.5
259 1 0.741902 0.754245 0.5
94 1 0.875019 0.754235 0.5
361 1 0.974148 0.713456 0.5
58 1 0.00498396 0.751377 0.5
61 1 0.211473 0.737141 0.5
245 1 0.257773 0.758388 0.5
190 1 0.346707 0.733246 0.5
191 1 0.376708 0.681993 0.5
148 1 0.444215 0.734764 0.5
383 1 0.363126 0.823834 0.5
242 1 0.54793 0.796729 0.5
318 1 0.696319 0.732668 0.5
104 1 0.776813 0.791626 0.5
228 1 0.833943 0.723472 0.5
272 1 0.925965 0.726831 0.5
329 1 0.954905 0.811787 0.5
325 1 0.00185874 0.799296 0.5
192 1 0.111175 0.777812 0.5
36 1 0.159853 0.758192 0.5
282 1 0.276502 0.71436 0.5
77 1 0.340439 0.783659 0.5
364 1 0.407551 0.841652 0.5
369 1 0.399736 0.745698 0.5
105 1 0.46514 0.835097 0.5
305 1 0.497078 0.799353 0.5
394 1 0.647432 0.748813 0.5
246 1 0.764876 0.835931 0.5
196 1 0.78905 0.878712 0.5
212 1 0.78879 0.738377 0.5
324 1 0.826787 0.773361 0.5
341 1 0.860924 0.804676 0.5
175 1 0.917663 0.780337 0.5
322 1 0.956095 0.86544 0.5
108 1 0.200077 0.784674 0.5
376 1 0.304423 0.752789 0.5
164 1 0.512589 0.845365 0.5
90 1 0.659968 0.840884 0.5
240 1 0.706681 0.793341 0.5
64 1 0.719392 0.846851 0.5
286 1 0.745457 0.893371 0.5
62 1 0.811605 0.826228 0.5
11 1 0.909366 0.847985 0.5
143 1 0.0391038 0.831656 0.5
363 1 0.0514593 0.784616 0.5
211 1 0.149976 0.803492 0.5
255 1 0.189483 0.829606 0.5
173 1 0.320434 0.846288 0.5
170 1 0.419904 0.890468 0.5
142 1 0.399435 0.790952 0.5
327 1 0.523512 0.891608 0.5
359 1 0.698454 0.912187 0.5
285 1 0.834747 0.891706 0.5
276 1 0.932735 0.908904 0.5
224 1 0.982999 0.911263 0.5
275 1 0.0919661 0.821594 0.5
374 1 0.221643 0.867802 0.5
273 1 0.366741 0.873351 0.5
323 1 0.476063 0.883802 0.5
28 1 0.498248 0.93018 0.5
232 1 0.562424 0.846177 0.5
102 1 0.612447 0.844267 0.5
107 1 0.708921 0.958398 0.5
262 1 0.757885 0.995584 0.5
274 1 0.753009 0.941505 0.5
13 1 0.797442 0.925469 0.5
112 1 0.856459 0.850398 0.5
126 1 0.89295 0.945716 0.5
88 1 0.0104635 0.871362 0.5
116 1 0.137094 0.853419 0.5
68 1 0.164673 0.892565 0.5
360 1 0.242579 0.815739 0.5
395 1 0.442867 0.946791 0.5
150 1 0.585288 0.886931 0.5
113 1 0.641454 0.886102 0.5
253 1 0.631266 0.988139 0.5
358 1 0.799015 0.973509 0.5
311 1 0.841524 0.937188 0.5
392 1 0.885974 0.888819 0.5
295 1 0.948793 0.953485 0.5
128 1 0.0736381 0.866632 0.5
382 1 0.116833 0.897433 0.5
380 1 0.253241 0.906943 0.5
52 1 0.267011 0.860434 0.5
132 1 0.291802 0.803607 0.5
109 1 0.375455 0.96397 0.5
348 1 0.61488 0.934393 0.5
1 1 0.660238 0.939395 0.5
365 1 0.598325 0.0283739 0.5
124 1 0.686755 0.00497132 0.5
400 1 0.724792 0.0878261 0.5
59 1 0.777604 0.0757852 0.5
93 1 0.860036 0.984271 0.5
309 1 0.910413 0.994236 0.5
290 1 0.00964987 0.0113665 0.5
299 1 0.998585 0.957044 0.5
161 1 0.051702 0.90769 0.5
208 1 0.294955 0.949715 0.5
166 1 0.300845 0.891823 0.5
215 1 0.341044 0.915021 0.5
163 1 0.418341 0.989219 0.5
216 1 0.373863 0.0115525 0.5
54 1 0.555467 0.928081 0.5
333 1 0.60329 0.078911 0.5
177 1 0.646029 0.0322347 0.5
138 1 0.738225 0.0356388 0.5
66 1 0.820165 0.0200279 0.5
160 1 0.878225 0.0279853 0.5
