LAMMPS (15 Sep 2022)
OMP_NUM_THREADS environment is not set. Defaulting to 1 thread. (src/comm.cpp:98)
  using 1 OpenMP thread(s) per MPI task
# 2d WCA system, random initial configuration

#variable density equal 0.5
variable initial_temperature equal 3.0
variable final_temperature equal 0.1
variable dt equal 0.01
variable tau equal 100*${dt}
variable tau equal 100*0.01
variable thermo_time equal 50000*${dt}
variable thermo_time equal 50000*0.01
variable equil_steps equal 50000
variable run_steps equal 100000

units           lj
atom_style      atomic
dimension       2

lattice         sq ${density}
lattice         sq 0.95
Lattice spacing in x,y,z = 1.0259784 1.0259784 1.0259784
region          box block 0 20 0 20 -0.5 0.5
# number of atom types
create_box      1 box
Created orthogonal box = (0 0 -0.51298918) to (20.519567 20.519567 0.51298918)
  1 by 1 by 1 MPI processor grid
create_atoms    1 box
Created 400 atoms
  using lattice units in orthogonal box = (0 0 -0.51298918) to (20.519567 20.519567 0.51298918)
  create_atoms CPU = 0.000 seconds
mass 1 1.0

velocity all create ${initial_temperature} 12345
velocity all create 3 12345

pair_style      lj/cut 1.0
#type_1 type_2 epsilon sigma cutoff
pair_coeff      1 1 10.0 0.89089871814 1.0
pair_modify shift yes

timestep ${dt}
timestep 0.01
thermo ${thermo_time}
thermo 500

fix 1 all nvt temp ${initial_temperature} ${initial_temperature} ${tau}
fix 1 all nvt temp 3 ${initial_temperature} ${tau}
fix 1 all nvt temp 3 3 ${tau}
fix 1 all nvt temp 3 3 1
run ${equil_steps}
run 50000
Generated 0 of 0 mixed pair_coeff terms from geometric mixing rule
Neighbor list info ...
  update: every = 1 steps, delay = 0 steps, check = yes
  max neighbors/atom: 2000, page size: 100000
  master list distance cutoff = 1.3
  ghost atom cutoff = 1.3
  binsize = 0.65, bins = 32 32 2
  1 neighbor lists, perpetual/occasional/extra = 1 0 0
  (1) pair lj/cut, perpetual
      attributes: half, newton on
      pair build: half/bin/atomonly/newton
      stencil: half/bin/2d
      bin: standard
Per MPI rank memory allocation (min/avg/max) = 3.055 | 3.055 | 3.055 Mbytes
   Step          Temp          E_pair         E_mol          TotEng         Press     
         0   3              0              0              2.9925         2.842875     
       500   3.0468572      1.3849185      0              4.4241585      26.224915    
      1000   3.1695452      1.2611191      0              4.4227404      24.722582    
      1500   3.003338       1.2810247      0              4.2768544      24.780112    
      2000   2.8989561      1.4184246      0              4.3101333      26.64641     
      2500   2.9403238      1.3996639      0              4.3326369      26.337256    
      3000   3.1221891      1.1793688      0              4.2937524      24.101859    
      3500   3.0290293      1.4351601      0              4.4566168      26.683483    
      4000   3.0870766      1.4588394      0              4.5381983      27.174907    
      4500   3.0253322      1.2811875      0              4.2989564      25.604582    
      5000   2.9897867      1.3522807      0              4.334593       25.607589    
      5500   3.1499911      1.2468947      0              4.3890109      24.753175    
      6000   3.0218026      1.4555601      0              4.4698082      26.931552    
      6500   2.9879572      1.1250374      0              4.1055247      22.666452    
      7000   2.6973972      1.3469691      0              4.0376228      25.57637     
      7500   2.9963921      1.2139579      0              4.202859       24.405329    
      8000   3.0820609      1.2986225      0              4.3729783      26.058858    
      8500   3.2207641      1.2629068      0              4.475619       24.783195    
      9000   2.8529444      1.1761305      0              4.0219426      23.044302    
      9500   2.8784127      1.2153226      0              4.0865392      24.472825    
     10000   2.8135392      1.290521       0              4.0970263      25.069011    
     10500   2.9301652      1.3229262      0              4.245766       25.009002    
     11000   2.8254393      1.1432335      0              3.9616092      23.171963    
     11500   2.8681686      1.1516128      0              4.0126109      23.039772    
     12000   2.9815801      1.4060649      0              4.3801911      26.139868    
     12500   3.0552543      1.462171       0              4.5097872      26.463735    
     13000   3.1499011      1.2732373      0              4.4152636      25.849497    
     13500   3.4954545      1.1866424      0              4.6733583      24.36466     
     14000   2.90348        1.195791       0              4.0920122      23.533333    
     14500   2.9652771      1.2986002      0              4.2564641      24.917114    
     15000   3.143559       1.393062       0              4.5287621      25.893727    
     15500   3.1376185      1.2650094      0              4.3947838      24.847402    
     16000   2.9828641      1.3440508      0              4.3194577      26.401839    
     16500   2.8174478      1.2909527      0              4.1013569      25.190721    
     17000   3.1418842      1.1420526      0              4.2760821      23.735663    
     17500   3.3150361      1.2282829      0              4.5350314      24.75039     
     18000   2.9017549      1.4720306      0              4.3665312      27.341034    
     18500   3.1723014      1.2206248      0              4.3849955      24.528889    
     19000   2.8354221      1.1314905      0              3.9598241      23.277913    
     19500   2.9206074      1.2899629      0              4.2032688      25.30996     
     20000   3.2017268      1.1472759      0              4.3409984      23.264504    
     20500   3.1244509      1.5463404      0              4.6629801      28.760108    
     21000   3.1116302      1.2137153      0              4.3175664      23.810657    
     21500   2.9566718      1.5022496      0              4.4515298      27.413243    
     22000   2.7581956      1.1027477      0              3.8540478      23.054364    
     22500   2.9767514      1.3076078      0              4.2769173      24.572168    
     23000   3.1795682      1.2263931      0              4.3980124      24.736472    
     23500   2.7872998      1.2118402      0              3.9921717      24.62423     
     24000   3.0341908      1.1005372      0              4.1271425      22.666309    
     24500   3.0421479      1.1289482      0              4.1634908      23.347041    
     25000   3.0283107      1.220341       0              4.241081       24.682394    
     25500   3.2606527      1.3072978      0              4.5597989      25.790979    
     26000   3.328965       1.2885234      0              4.609166       25.517111    
     26500   2.9757285      1.440135       0              4.4084241      26.928682    
     27000   3.2750978      1.3060817      0              4.5729917      25.784924    
     27500   2.9231646      1.2829936      0              4.1988503      24.525119    
     28000   3.0208684      1.1731206      0              4.1864368      23.986262    
     28500   3.0227342      1.1873158      0              4.2024931      23.352536    
     29000   3.0895361      1.1491046      0              4.2309169      23.722373    
     29500   2.9587664      1.3461236      0              4.2974931      25.361415    
     30000   3.0743037      1.1287963      0              4.1954143      22.480955    
     30500   3.1851795      1.2340124      0              4.4112289      24.443939    
     31000   2.9491114      1.1046154      0              4.0463539      22.610827    
     31500   3.0818528      1.1259865      0              4.2001347      23.440063    
     32000   2.954042       1.3288366      0              4.2754935      25.424933    
     32500   3.11537        1.3539014      0              4.461483       25.461311    
     33000   3.3112928      1.4582566      0              4.7612711      27.630346    
     33500   3.2928459      1.272551       0              4.5571648      24.990036    
     34000   3.0492383      1.4352324      0              4.4768476      27.059083    
     34500   3.0183418      1.3732159      0              4.3840119      26.195739    
     35000   2.9317111      1.1894115      0              4.1137933      23.523089    
     35500   2.9696888      1.1943826      0              4.1566471      23.429873    
     36000   2.8207956      1.275477       0              4.0892206      24.322404    
     36500   2.9753557      1.1451137      0              4.113031       23.607808    
     37000   2.8699639      1.2789459      0              4.1417349      24.552699    
     37500   2.9231578      1.3071048      0              4.2229547      24.978714    
     38000   2.9169131      1.2277254      0              4.1373462      24.389009    
     38500   2.9442104      1.0244172      0              3.9612671      21.946386    
     39000   2.8564411      1.3103065      0              4.1596065      24.639851    
     39500   3.0642324      1.1750738      0              4.2316456      23.831686    
     40000   2.8806254      1.2052695      0              4.0786934      23.948737    
     40500   2.8801582      1.3330228      0              4.2059807      25.355655    
     41000   3.1509288      1.0403301      0              4.1833816      22.769638    
     41500   2.9734102      1.1891322      0              4.1551088      23.95583     
     42000   2.8400523      1.3730372      0              4.2059894      25.777554    
     42500   2.9452671      1.0304478      0              3.9683518      21.796127    
     43000   3.110418       1.1751674      0              4.2778094      24.117285    
     43500   2.8205425      1.140714       0              3.9542052      22.60009     
     44000   2.8017639      1.3010851      0              4.0958447      24.752589    
     44500   2.6095808      1.2021921      0              3.8052489      23.92761     
     45000   2.9624359      1.0723548      0              4.0273846      21.684506    
     45500   2.9546435      1.2219595      0              4.1692165      24.438166    
     46000   2.9496233      1.0182718      0              3.960521       21.366348    
     46500   2.952067       1.1402012      0              4.084888       22.859604    
     47000   2.8171039      1.1511556      0              3.9612167      23.168651    
     47500   2.7324291      1.199109       0              3.9247071      23.800163    
     48000   2.8814052      1.3646316      0              4.2388333      25.362877    
     48500   2.9556025      1.3522645      0              4.3004779      25.443734    
     49000   3.1366293      1.2698171      0              4.3986048      24.96378     
     49500   3.2709198      1.4243075      0              4.68705        26.931684    
     50000   3.0471688      1.3246984      0              4.3642493      25.275863    
Loop time of 1.94977 on 1 procs for 50000 steps with 400 atoms

Performance: 22156412.105 tau/day, 25643.995 timesteps/s, 10.258 Matom-step/s
99.2% CPU use with 1 MPI tasks x 1 OpenMP threads

MPI task timing breakdown:
Section |  min time  |  avg time  |  max time  |%varavg| %total
---------------------------------------------------------------
Pair    | 0.60455    | 0.60455    | 0.60455    |   0.0 | 31.01
Neigh   | 0.8915     | 0.8915     | 0.8915     |   0.0 | 45.72
Comm    | 0.092806   | 0.092806   | 0.092806   |   0.0 |  4.76
Output  | 0.0050301  | 0.0050301  | 0.0050301  |   0.0 |  0.26
Modify  | 0.25803    | 0.25803    | 0.25803    |   0.0 | 13.23
Other   |            | 0.09786    |            |       |  5.02

Nlocal:            400 ave         400 max         400 min
Histogram: 1 0 0 0 0 0 0 0 0 0
Nghost:            106 ave         106 max         106 min
Histogram: 1 0 0 0 0 0 0 0 0 0
Neighs:            986 ave         986 max         986 min
Histogram: 1 0 0 0 0 0 0 0 0 0

Total # of neighbors = 986
Ave neighs/atom = 2.465
Neighbor list builds = 16876
Dangerous builds = 0

unfix 1
dump           1 all atom ${run_steps} 2dWCA_T${final_temperature}_d${density}_N${run_steps}.lammpstrj
dump           1 all atom 100000 2dWCA_T${final_temperature}_d${density}_N${run_steps}.lammpstrj
dump           1 all atom 100000 2dWCA_T0.1_d${density}_N${run_steps}.lammpstrj
dump           1 all atom 100000 2dWCA_T0.1_d0.95_N${run_steps}.lammpstrj
dump           1 all atom 100000 2dWCA_T0.1_d0.95_N100000.lammpstrj
dump           2 all dcd ${thermo_time} 2dWCA_T${final_temperature}_d${density}_N${run_steps}.dcd
dump           2 all dcd 500 2dWCA_T${final_temperature}_d${density}_N${run_steps}.dcd
dump           2 all dcd 500 2dWCA_T0.1_d${density}_N${run_steps}.dcd
dump           2 all dcd 500 2dWCA_T0.1_d0.95_N${run_steps}.dcd
dump           2 all dcd 500 2dWCA_T0.1_d0.95_N100000.dcd
fix 1 all nvt temp ${initial_temperature} ${final_temperature} ${tau}
fix 1 all nvt temp 3 ${final_temperature} ${tau}
fix 1 all nvt temp 3 0.1 ${tau}
fix 1 all nvt temp 3 0.1 1

run ${run_steps}
run 100000
Generated 0 of 0 mixed pair_coeff terms from geometric mixing rule
Per MPI rank memory allocation (min/avg/max) = 3.083 | 3.083 | 3.083 Mbytes
   Step          Temp          E_pair         E_mol          TotEng         Press     
     50000   3.0471688      1.3246984      0              4.3642493      25.275863    
     50500   3.0915872      1.2216661      0              4.3055243      23.946943    
     51000   3.0767966      1.1938257      0              4.2629303      23.590776    
     51500   2.8829865      1.2788986      0              4.1546776      24.8788      
     52000   3.0651349      1.0527367      0              4.1102088      21.468447    
     52500   2.7910305      1.2255475      0              4.0096004      24.179962    
     53000   2.8727688      1.1284743      0              3.9940612      22.690348    
     53500   2.8336263      1.1538269      0              3.9803691      22.569381    
     54000   2.7882222      1.2462273      0              4.0274789      23.962834    
     54500   2.8297222      1.2759803      0              4.0986281      24.487158    
     55000   3.0634361      1.0680634      0              4.123841       22.179278    
     55500   2.8804576      1.2178016      0              4.0910581      23.77403     
     56000   2.8370731      1.1488563      0              3.9788367      23.318386    
     56500   2.5203745      1.1642295      0              3.678303       22.997127    
     57000   2.7479316      1.076167       0              3.8172288      22.24523     
     57500   2.648405       1.2409257      0              3.8827098      24.097774    
     58000   2.7308133      1.1743319      0              3.8983181      23.763803    
     58500   2.8422892      1.2412376      0              4.0764211      24.116437    
     59000   2.6443124      1.2784811      0              3.9161827      24.585376    
     59500   2.8526846      1.2475609      0              4.0931137      24.539306    
     60000   2.983706       1.1978239      0              4.1740706      23.708845    
     60500   2.7412614      1.0662063      0              3.8006146      21.948597    
     61000   2.7284543      0.98412793     0              3.7057611      20.876685    
     61500   2.7974004      0.91143669     0              3.7018436      20.428763    
     62000   2.7103314      1.0001998      0              3.7037554      20.894391    
     62500   2.6749719      0.98785294     0              3.6561374      20.974312    
     63000   2.2625906      0.9943629      0              3.251297       20.438312    
     63500   2.4928447      1.1056702      0              3.5922827      22.637987    
     64000   2.5471086      1.0467344      0              3.5874752      21.950119    
     64500   2.4848556      1.0934929      0              3.5721364      21.771207    
     65000   2.5873113      0.88573892     0              3.466582       19.837683    
     65500   2.4247807      1.1026159      0              3.5213346      22.33685     
     66000   2.5223571      1.1786812      0              3.6947324      23.367735    
     66500   2.6467482      1.0306244      0              3.6707557      21.617747    
     67000   2.7522041      1.1187978      0              3.8641214      23.070195    
     67500   2.5583539      1.2236171      0              3.7755751      23.846222    
     68000   2.573132       1.1031602      0              3.6698594      22.464477    
     68500   2.5999728      1.0624556      0              3.6559284      22.275704    
     69000   2.5353743      0.99128026     0              3.5203161      20.890429    
     69500   2.6112279      1.0433447      0              3.6480446      21.064106    
     70000   2.7647487      1.053402       0              3.8112388      21.754237    
     70500   2.4256518      0.88620409     0              3.3057917      19.268519    
     71000   2.4255033      0.91743074     0              3.3368703      19.691663    
     71500   2.2186096      0.96208814     0              3.1751512      20.241372    
     72000   2.1891442      1.077467       0              3.2611384      21.542762    
     72500   2.2337276      1.007195       0              3.2353383      20.557999    
     73000   2.2664551      0.94635388     0              3.2071428      19.472266    
     73500   2.244012       0.84144175     0              3.0798437      18.315105    
     74000   2.1237587      0.85192237     0              2.9703717      18.468912    
     74500   2.0221927      0.9111301      0              2.9282673      19.348115    
     75000   2.2936373      0.85768148     0              3.1455846      18.965351    
     75500   2.2687859      0.92517539     0              3.1882893      19.858495    
     76000   2.2528674      0.92504769     0              3.1722829      20.040777    
     76500   2.3917821      0.8564283      0              3.2422309      19.005172    
     77000   2.2572331      0.90154757     0              3.1531376      19.561204    
     77500   2.2111905      0.94837732     0              3.1540398      20.116318    
     78000   2.2053441      0.76223721     0              2.9620679      17.626641    
     78500   2.0067992      0.85173193     0              2.8535141      18.497182    
     79000   2.0197672      0.8916914      0              2.9064092      18.943405    
     79500   2.1945946      0.78678924     0              2.9758973      18.071949    
     80000   2.1073404      0.84680873     0              2.9488808      18.96187     
     80500   2.2395323      0.97296413     0              3.2068976      20.780164    
     81000   2.2818822      0.89603937     0              3.1722168      19.176103    
     81500   2.2911649      0.89526805     0              3.180705       19.317108    
     82000   2.2067763      0.84961969     0              3.0508791      18.608428    
     82500   2.0346652      0.94141246     0              2.970991       20.118571    
     83000   2.1244333      0.88771364     0              3.0068358      19.480335    
     83500   2.1968307      0.84342633     0              3.034765       18.291323    
     84000   2.1095017      0.866178       0              2.970406       18.979585    
     84500   2.0138861      0.84360042     0              2.8524518      18.328173    
     85000   2.0386241      0.78170987     0              2.8152374      17.441638    
     85500   1.9170867      0.85623632     0              2.7685303      19.068149    
     86000   2.0313292      0.86757027     0              2.8938212      18.808032    
     86500   1.9673573      0.76520256     0              2.7276415      16.83261     
     87000   1.8692391      0.79374873     0              2.6583147      17.429052    
     87500   2.0128363      0.6920292      0              2.6998334      15.987504    
     88000   1.9968418      0.68068618     0              2.6725359      15.884537    
     88500   1.8591949      0.83473426     0              2.6892812      18.133327    
     89000   1.8598173      0.69320354     0              2.5483713      16.061993    
     89500   1.834378       0.72050037     0              2.5502924      16.52576     
     90000   1.7904473      0.74064361     0              2.5266148      16.477041    
     90500   1.6700791      0.76456647     0              2.4304704      17.129286    
     91000   1.928317       0.70155426     0              2.6250505      16.275839    
     91500   1.9860118      0.66671857     0              2.6477654      15.957323    
     92000   1.7754991      0.74826075     0              2.5193211      16.885968    
     92500   1.8661327      0.58364982     0              2.4451172      14.302131    
     93000   1.7047124      0.75438096     0              2.4548316      17.211443    
     93500   1.8775434      0.55870861     0              2.4315581      14.793251    
     94000   1.8180625      0.61727785     0              2.4307952      14.926475    
     94500   1.7812707      0.82654708     0              2.6033646      17.95262     
     95000   1.9085722      0.64890008     0              2.5527009      15.26262     
     95500   1.7288861      0.73299839     0              2.4575623      16.786777    
     96000   1.7665306      0.64150708     0              2.4036213      15.382785    
     96500   1.5935599      0.71484624     0              2.3044222      16.008462    
     97000   1.6846444      0.58797179     0              2.2684046      14.674109    
     97500   1.5783099      0.6433552      0              2.2177194      15.489765    
     98000   1.5967783      0.59570093     0              2.1884872      14.492286    
     98500   1.6161622      0.5098526      0              2.1219744      13.069923    
     99000   1.6933761      0.70253655     0              2.3916792      15.705866    
     99500   1.6996146      0.61765476     0              2.3130203      14.778465    
    100000   1.6752902      0.55849991     0              2.2296019      13.945945    
    100500   1.5346606      0.66191872     0              2.1927427      15.012409    
    101000   1.6273703      0.63208505     0              2.255387       15.189679    
    101500   1.6145043      0.56654212     0              2.1770102      14.205924    
    102000   1.5910098      0.53929488     0              2.1263271      13.66271     
    102500   1.5238892      0.60942285     0              2.1295023      14.456161    
    103000   1.4723866      0.58873939     0              2.057445       14.290979    
    103500   1.5701763      0.58730492     0              2.1535558      14.008189    
    104000   1.4902727      0.57016271     0              2.0567097      14.046482    
    104500   1.4796687      0.51546145     0              1.991431       13.072113    
    105000   1.2649749      0.45663511     0              1.7184475      12.017232    
    105500   1.3156689      0.51412554     0              1.8265053      13.152713    
    106000   1.3501171      0.50866801     0              1.8554098      12.459147    
    106500   1.3529491      0.5450663      0              1.894633       13.427649    
    107000   1.4103403      0.5048122      0              1.9116266      12.851799    
    107500   1.2837219      0.52804516     0              1.8085577      13.276533    
    108000   1.1949095      0.52530122     0              1.7172235      13.017685    
    108500   1.1829526      0.45585363     0              1.6358488      12.13873     
    109000   1.2380915      0.45732741     0              1.6923237      11.637552    
    109500   1.2397503      0.46222024     0              1.6988711      12.155645    
    110000   1.2488539      0.44427846     0              1.6900102      11.924398    
    110500   1.266175       0.43679811     0              1.6998076      11.445676    
    111000   1.1813416      0.49791195     0              1.6763002      12.622001    
    111500   1.2731148      0.36663893     0              1.6365709      10.532308    
    112000   1.1418506      0.40563234     0              1.5446283      11.228773    
    112500   1.1484511      0.45176176     0              1.5973417      11.590644    
    113000   1.1842833      0.43132022     0              1.6126428      11.696324    
    113500   1.2951801      0.39213425     0              1.6840764      11.223454    
    114000   1.2093174      0.44264129     0              1.6489354      11.406427    
    114500   1.2127137      0.32581039     0              1.5354923      9.3863674    
    115000   1.0901392      0.388034       0              1.4754478      10.348109    
    115500   1.0991459      0.39569177     0              1.4920898      10.728699    
    116000   1.0336603      0.44893624     0              1.4800124      11.980139    
    116500   1.0478411      0.43259273     0              1.4778143      11.051463    
    117000   1.0437582      0.39939854     0              1.4405473      10.691527    
    117500   1.0678227      0.36328656     0              1.4284397      9.919448     
    118000   1.0816631      0.40355293     0              1.4825119      10.874411    
    118500   1.0780512      0.32657816     0              1.4019343      9.397133     
    119000   1.0061504      0.36965494     0              1.37329        10.280019    
    119500   0.98512376     0.39469213     0              1.3773531      10.647325    
    120000   1.026188       0.28688457     0              1.3105071      8.7529567    
    120500   1.0115138      0.31132111     0              1.3203061      9.109605     
    121000   0.96027045     0.30833725     0              1.266207       9.3484171    
    121500   0.98384458     0.29443524     0              1.2758202      9.0409862    
    122000   0.79842932     0.23542001     0              1.0318533      7.4749979    
    122500   0.8410687      0.2734993      0              1.1124653      8.1265747    
    123000   0.84175864     0.31249609     0              1.1521503      8.9360555    
    123500   0.92041013     0.26919507     0              1.1873042      8.2554852    
    124000   0.88734375     0.31785453     0              1.2029799      8.9888567    
    124500   0.88688195     0.2706855      0              1.1553502      8.3553463    
    125000   0.82851293     0.28172825     0              1.1081699      8.5067277    
    125500   0.82660204     0.24649447     0              1.07103        7.4451087    
    126000   0.76366294     0.24597906     0              1.0077328      8.0961397    
    126500   0.76737664     0.25225951     0              1.0177177      7.8261347    
    127000   0.76690433     0.22138986     0              0.98637693     7.5717436    
    127500   0.70238781     0.24516593     0              0.94579777     7.8192715    
    128000   0.7158598      0.21449078     0              0.92856093     6.9330646    
    128500   0.6989331      0.19037487     0              0.88756064     6.6166947    
    129000   0.6866041      0.17382757     0              0.85871515     6.2471432    
    129500   0.64993206     0.16489084     0              0.81319807     5.9562214    
    130000   0.67507459     0.18781054     0              0.86119744     6.4674062    
    130500   0.63582644     0.18908086     0              0.82331773     6.1770408    
    131000   0.59286055     0.19500458     0              0.78638299     6.5936751    
    131500   0.57960284     0.17856609     0              0.75671992     6.3094808    
    132000   0.60181678     0.16227228     0              0.76258452     5.7133504    
    132500   0.628285       0.14833771     0              0.77505199     5.3368573    
    133000   0.64406162     0.13868725     0              0.78113871     5.2953412    
    133500   0.63670351     0.17347241     0              0.80858416     6.0649256    
    134000   0.62372474     0.1225284      0              0.74469383     4.7839777    
    134500   0.58925111     0.15474009     0              0.74251808     5.7277939    
    135000   0.53276621     0.15745435     0              0.68888864     5.4702109    
    135500   0.53086897     0.16595774     0              0.69549954     5.7018778    
    136000   0.52436936     0.14616821     0              0.66922665     5.4941946    
    136500   0.48291022     0.13042991     0              0.61213286     4.9833239    
    137000   0.45453288     0.14091192     0              0.59430847     5.3398428    
    137500   0.43095176     0.1279244      0              0.55779878     4.9096229    
    138000   0.44212382     0.10670639     0              0.5477249      4.3458128    
    138500   0.42604081     0.099218769    0              0.52419448     4.1672745    
    139000   0.40202077     0.10847868     0              0.5094944      4.318488     
    139500   0.39588705     0.089427149    0              0.48432448     3.8292692    
    140000   0.37200142     0.11855856     0              0.48962997     4.5443709    
    140500   0.36978348     0.092332245    0              0.46119127     3.8258599    
    141000   0.36787623     0.075100724    0              0.44205726     3.3683331    
    141500   0.35359254     0.085129148    0              0.43783771     3.8068563    
    142000   0.32872017     0.048374034    0              0.3762724      2.4450977    
    142500   0.31328762     0.076923055    0              0.38942745     3.3797658    
    143000   0.29548125     0.064439703    0              0.35918225     3.098194     
    143500   0.28401118     0.05793174     0              0.34123289     2.8917601    
    144000   0.28782589     0.038757886    0              0.32586421     2.3611781    
    144500   0.26527083     0.056925695    0              0.32153335     2.7085569    
    145000   0.26304192     0.040863157    0              0.30324747     2.2240104    
    145500   0.23931827     0.043136158    0              0.28185613     2.3996739    
    146000   0.21774652     0.041949878    0              0.25915203     2.2205379    
    146500   0.20853516     0.035025585    0              0.24303941     1.9767386    
    147000   0.20311049     0.035702341    0              0.23830505     2.1293669    
    147500   0.17726547     0.02719387     0              0.20401617     1.776677     
    148000   0.15509987     0.022206561    0              0.17691869     1.4783111    
    148500   0.13447135     0.022909687    0              0.15704486     1.415254     
    149000   0.1277381      0.01667679     0              0.14409554     1.1971068    
    149500   0.12162237     0.013322903    0              0.13464122     1.1153072    
    150000   0.10418343     0.014331509    0              0.11825448     1.0749252    
Loop time of 3.15256 on 1 procs for 100000 steps with 400 atoms

Performance: 27406262.835 tau/day, 31720.212 timesteps/s, 12.688 Matom-step/s
99.4% CPU use with 1 MPI tasks x 1 OpenMP threads

MPI task timing breakdown:
Section |  min time  |  avg time  |  max time  |%varavg| %total
---------------------------------------------------------------
Pair    | 1.0683     | 1.0683     | 1.0683     |   0.0 | 33.89
Neigh   | 1.2451     | 1.2451     | 1.2451     |   0.0 | 39.49
Comm    | 0.14628    | 0.14628    | 0.14628    |   0.0 |  4.64
Output  | 0.0093156  | 0.0093156  | 0.0093156  |   0.0 |  0.30
Modify  | 0.51331    | 0.51331    | 0.51331    |   0.0 | 16.28
Other   |            | 0.1703     |            |       |  5.40

Nlocal:            400 ave         400 max         400 min
Histogram: 1 0 0 0 0 0 0 0 0 0
Nghost:            100 ave         100 max         100 min
Histogram: 1 0 0 0 0 0 0 0 0 0
Neighs:           1124 ave        1124 max        1124 min
Histogram: 1 0 0 0 0 0 0 0 0 0

Total # of neighbors = 1124
Ave neighs/atom = 2.81
Neighbor list builds = 24109
Dangerous builds = 0
Total wall time: 0:00:05
