
Scratch directory: /tmp/

  //>>>>>>>>>>>>>>>>>>>>>>>>>>>>>>>>>>>>>//
  // ManyBody Setup: N-Body Levels [1, 2]//
  //<<<<<<<<<<<<<<<<<<<<<<<<<<<<<<<<<<<<<//

        Number of 1-body computations:     2
        Number of 2-body computations:     1

    -----------------------------------------------------------------------
          Psi4: An Open-Source Ab Initio Electronic Structure Package
                               Psi4 1.7a1.dev44 

                         Git: Rev {master} 2792bff 


    D. G. A. Smith, L. A. Burns, A. C. Simmonett, R. M. Parrish,
    M. C. Schieber, R. Galvelis, P. Kraus, H. Kruse, R. Di Remigio,
    A. Alenaizan, A. M. James, S. Lehtola, J. P. Misiewicz, M. Scheurer,
    R. A. Shaw, J. B. Schriber, Y. Xie, Z. L. Glick, D. A. Sirianni,
    J. S. O'Brien, J. M. Waldrop, A. Kumar, E. G. Hohenstein,
    B. P. Pritchard, B. R. Brooks, H. F. Schaefer III, A. Yu. Sokolov,
    K. Patkowski, A. E. DePrince III, U. Bozkaya, R. A. King,
    F. A. Evangelista, J. M. Turney, T. D. Crawford, C. D. Sherrill,
    J. Chem. Phys. 152(18) 184108 (2020). https://doi.org/10.1063/5.0006002

                            Additional Code Authors
    E. T. Seidl, C. L. Janssen, E. F. Valeev, M. L. Leininger,
    J. F. Gonthier, R. M. Richard, H. R. McAlexander, M. Saitow, X. Wang,
    P. Verma, M. H. Lechner, and A. Jiang

             Previous Authors, Complete List of Code Contributors,
                       and Citations for Specific Modules
    https://github.com/psi4/psi4/blob/master/codemeta.json
    https://github.com/psi4/psi4/graphs/contributors
    http://psicode.org/psi4manual/master/introduction.html#citing-psifour

    -----------------------------------------------------------------------


    Psi4 started on: Saturday, 25 November 2023 01:38AM

    Process ID: 3879808
    Host:       log-1
    PSIDATADIR: /ext3/miniconda3/share/psi4
    Memory:     500.0 MiB
    Threads:    1
    
  ==> Input QCSchema <==

--------------------------------------------------------------------------
{'driver': 'energy',
 'extras': {'psiapi': True, 'wfn_qcvars_only': True},
 'id': None,
 'keywords': {'FREEZE_CORE': '1', 'function_kwargs': {}},
 'model': {'basis': 'aug-cc-pvdz', 'method': 'ccsd(t)'},
 'molecule': {'atom_labels': ['', ''],
              'atomic_numbers': [18, 18],
              'fix_com': True,
              'fix_orientation': True,
              'fragment_charges': [0.0, 0.0],
              'fragment_multiplicities': [1, 1],
              'fragments': [[0], [1]],
              'geometry': [0.0, 0.0, -3.3070207195512, 0.0, 0.0, 3.307020719551199],
              'mass_numbers': [40, 40],
              'masses': [39.9623831237, 39.9623831237],
              'molecular_charge': 0.0,
              'molecular_multiplicity': 1,
              'name': 'Ar2',
              'provenance': {'creator': 'QCElemental',
                             'routine': 'qcelemental.molparse.from_string',
                             'version': 'v0.25.1'},
              'real': [False, True],
              'schema_name': 'qcschema_molecule',
              'schema_version': 2,
              'symbols': ['Ar', 'Ar'],
              'validated': True},
 'protocols': {'stdout': True},
 'provenance': {'creator': 'QCElemental', 'routine': 'qcelemental.models.results', 'version': 'v0.25.1'},
 'schema_name': 'qcschema_input',
 'schema_version': 1}
--------------------------------------------------------------------------

Scratch directory: /tmp/

*** tstart() called on log-1
*** at Sat Nov 25 01:58:43 2023

   => Loading Basis Set <=

    Name: AUG-CC-PVDZ
    Role: ORBITAL
    Keyword: BASIS
    atoms 1-2 entry AR         line   834 file /ext3/miniconda3/share/psi4/basis/aug-cc-pvdz.gbs 


         ---------------------------------------------------------
                                   SCF
               by Justin Turney, Rob Parrish, Andy Simmonett
                          and Daniel G. A. Smith
                              RHF Reference
                        1 Threads,    500 MiB Core
         ---------------------------------------------------------

  ==> Geometry <==

    Molecular point group: c2v
    Full point group: C_inf_v

    Geometry (in Bohr), charge = 0, multiplicity = 1:

       Center              X                  Y                   Z               Mass       
    ------------   -----------------  -----------------  -----------------  -----------------
      Gh(AR)          0.000000000000     0.000000000000    -3.307020719551    39.962383123700
         AR           0.000000000000     0.000000000000     3.307020719551    39.962383123700

  Running in c2v symmetry.

  Rotational constants: A = ************  B =      0.06887  C =      0.06887 [cm^-1]
  Rotational constants: A = ************  B =   2064.71317  C =   2064.71317 [MHz]
  Nuclear repulsion =    0.000000000000000

  Charge       = 0
  Multiplicity = 1
  Electrons    = 18
  Nalpha       = 9
  Nbeta        = 9

  ==> Algorithm <==

  SCF Algorithm Type is PK.
  DIIS enabled.
  MOM disabled.
  Fractional occupation disabled.
  Guess Type is SAD.
  Energy threshold   = 1.00e-08
  Density threshold  = 1.00e-08
  Integral threshold = 1.00e-12

  ==> Primary Basis <==

  Basis Set: AUG-CC-PVDZ
    Blend: AUG-CC-PVDZ
    Number of shells: 22
    Number of basis functions: 54
    Number of Cartesian functions: 58
    Spherical Harmonics?: true
    Max angular momentum: 2

  ==> Integral Setup <==

  Using in-core PK algorithm.
   Calculation information:
      Number of atoms:                   2
      Number of AO shells:              22
      Number of primitives:            106
      Number of atomic orbitals:        58
      Number of basis functions:        54

      Integral cutoff                 1.00e-12
      Number of threads:                 1

  Performing in-core PK
  Using 2206710 doubles for integral storage.
  We computed 30876 shell quartets total.
  Whereas there are 32131 unique shell quartets.

  ==> DiskJK: Disk-Based J/K Matrices <==

    J tasked:                  Yes
    K tasked:                  Yes
    wK tasked:                  No
    Memory [MiB]:              375
    Schwarz Cutoff:          1E-12

    OpenMP threads:              1

  Minimum eigenvalue in the overlap matrix is 2.8502018996E-02.
  Reciprocal condition number of the overlap matrix is 9.9001819426E-03.
    Using symmetric orthogonalization.

  ==> Pre-Iterations <==

  SCF Guess: Superposition of Atomic Densities via on-the-fly atomic UHF (no occupation information).

   -------------------------
    Irrep   Nso     Nmo    
   -------------------------
     A1        26      26 
     A2         4       4 
     B1        12      12 
     B2        12      12 
   -------------------------
    Total      54      54
   -------------------------

  ==> Iterations <==

                        Total Energy        Delta E     RMS |[F,P]|

   @RHF iter SAD:  -526.79237559316175   -5.26792e+02   0.00000e+00 
   @RHF iter   1:  -526.80075737710297   -8.38178e-03   7.27741e-04 ADIIS/DIIS
   @RHF iter   2:  -526.80099327959533   -2.35902e-04   1.93084e-04 ADIIS/DIIS
   @RHF iter   3:  -526.80100808795919   -1.48084e-05   4.61698e-06 DIIS
   @RHF iter   4:  -526.80100810402644   -1.60672e-08   7.00604e-07 DIIS
   @RHF iter   5:  -526.80100810462977   -6.03336e-10   3.44540e-08 DIIS
   @RHF iter   6:  -526.80100810463114   -1.36424e-12   7.93706e-09 DIIS
  Energy and wave function converged.


  ==> Post-Iterations <==

    Orbital Energies [Eh]
    ---------------------

    Doubly Occupied:                                                      

       1A1  -118.610659     2A1   -12.322800     1B1    -9.571387  
       1B2    -9.571387     3A1    -9.571386     4A1    -1.278862  
       5A1    -0.592234     2B1    -0.592222     2B2    -0.592222  

    Virtual:                                                              

       6A1     0.088355     3B2     0.120335     3B1     0.120335  
       7A1     0.126200     8A1     0.165293     4B2     0.167648  
       4B1     0.167648     9A1     0.254390    10A1     0.497165  
       5B2     0.540842     5B1     0.540842    11A1     0.541311  
       1A2     0.541311    12A1     0.545132     6B1     0.576345  
       6B2     0.576345    13A1     0.629948    14A1     0.796675  
       2A2     0.796675     7B2     0.813078     7B1     0.813078  
      15A1     0.846267     8B2     0.974064     8B1     0.974064  
      16A1     1.056103    17A1     1.368409     3A2     1.610344  
      18A1     1.610344     9B1     1.621656     9B2     1.621656  
      19A1     1.697119    20A1     1.929171    10B1     2.441046  
      10B2     2.441046    21A1     2.470613     4A2     3.103997  
      22A1     3.103997    11B2     3.113334    11B1     3.113334  
      23A1     3.179689    24A1     9.193445    12B2    27.720648  
      12B1    27.720648    25A1    27.744144    26A1   176.828038  

    Final Occupation by Irrep:
             A1    A2    B1    B2 
    DOCC [     5,    0,    2,    2 ]
    NA   [     5,    0,    2,    2 ]
    NB   [     5,    0,    2,    2 ]

  @RHF Final Energy:  -526.80100810463114

   => Energetics <=

    Nuclear Repulsion Energy =              0.0000000000000000
    One-Electron Energy =                -728.1956958459915086
    Two-Electron Energy =                 201.3946877413604568
    Total Energy =                       -526.8010081046310233

Computation Completed


Properties will be evaluated at   0.000000,   0.000000,   0.000000 [a0]

Properties computed using the SCF density matrix


 Multipole Moments:

 ------------------------------------------------------------------------------------
     Multipole            Electronic (a.u.)      Nuclear  (a.u.)        Total (a.u.)
 ------------------------------------------------------------------------------------

 L = 1.  Multiply by 2.5417464519 to convert [e a0] to [Debye]
 Dipole X            :          0.0000000            0.0000000            0.0000000
 Dipole Y            :          0.0000000            0.0000000            0.0000000
 Dipole Z            :        -59.5249867           59.5263730            0.0013862
 Magnitude           :                                                    0.0013862

 ------------------------------------------------------------------------------------

*** tstop() called on log-1 at Sat Nov 25 01:58:45 2023
Module time:
	user time   =       1.54 seconds =       0.03 minutes
	system time =       0.05 seconds =       0.00 minutes
	total time  =          2 seconds =       0.03 minutes
Total time:
	user time   =     181.98 seconds =       3.03 minutes
	system time =      15.87 seconds =       0.26 minutes
	total time  =        636 seconds =      10.60 minutes
 MINTS: Wrapper to libmints.
   by Justin Turney

   Calculation information:
      Number of threads:                 1
      Number of atoms:                   2
      Number of AO shells:              22
      Number of SO shells:              22
      Number of primitives:            106
      Number of atomic orbitals:        58
      Number of basis functions:        54

      Number of irreps:                  4
      Integral cutoff                 1.00e-12
      Number of functions per irrep: [  26    4   12   12 ]

 OEINTS: Overlap, kinetic, potential, dipole, and quadrupole integrals
         stored in file 35.

      Computing two-electron integrals...done
      Computed 232921 non-zero two-electron integrals.
        Stored in file 33.


*** tstart() called on log-1
*** at Sat Nov 25 01:58:46 2023


	Wfn Parameters:
	--------------------
	Wavefunction         = CCSD_T
	Number of irreps     = 4
	Number of MOs        = 54
	Number of active MOs = 49
	AO-Basis             = NONE
	Semicanonical        = false
	Reference            = RHF
	Print Level          = 1

	IRREP	# MOs	# FZDC	# DOCC	# SOCC	# VIRT	# FZVR
	-----	-----	------	------	------	------	------
	 A1	   26	    3	    2	    0	    21	    0
	 A2	   4	    0	    0	    0	    4	    0
	 B1	   12	    1	    1	    0	    10	    0
	 B2	   12	    1	    1	    0	    10	    0
	Transforming integrals...
	IWL integrals will be deleted.
	(OO|OO)...
	Presorting SO-basis two-electron integrals.
	Sorting File: SO Ints (nn|nn) nbuckets = 1
	Constructing frozen core operators
	Starting first half-transformation.
	Sorting half-transformed integrals.
	First half integral transformation complete.
	Starting second half-transformation.
	Two-electron integral transformation complete.
	(OO|OV)...
	Starting second half-transformation.
	Two-electron integral transformation complete.
	(OO|VV)...
	Starting second half-transformation.
	Two-electron integral transformation complete.
	(OV|OO)...
	Starting first half-transformation.
	Sorting half-transformed integrals.
	First half integral transformation complete.
	Starting second half-transformation.
	Two-electron integral transformation complete.
	(OV|OV)...
	Starting second half-transformation.
	Two-electron integral transformation complete.
	(OV|VV)...
	Starting second half-transformation.
	Two-electron integral transformation complete.
	(VV|OO)...
	Starting first half-transformation.
	Sorting half-transformed integrals.
	First half integral transformation complete.
	Starting second half-transformation.
	Two-electron integral transformation complete.
	(VV|OV)...
	Starting second half-transformation.
	Two-electron integral transformation complete.
	(VV|VV)...
	Starting second half-transformation.
	Two-electron integral transformation complete.
	Frozen core energy     =   -505.93058982773425

	Size of irrep 0 of <ab|cd> integrals:      0.432 (MW) /      3.453 (MB)
	Size of irrep 1 of <ab|cd> integrals:      0.135 (MW) /      1.083 (MB)
	Size of irrep 2 of <ab|cd> integrals:      0.250 (MW) /      2.000 (MB)
	Size of irrep 3 of <ab|cd> integrals:      0.250 (MW) /      2.000 (MB)
	Total:                                     1.067 (MW) /      8.537 (MB)

	Size of irrep 0 of <ia|bc> integrals:      0.041 (MW) /      0.326 (MB)
	Size of irrep 1 of <ia|bc> integrals:      0.010 (MW) /      0.082 (MB)
	Size of irrep 2 of <ia|bc> integrals:      0.022 (MW) /      0.180 (MB)
	Size of irrep 3 of <ia|bc> integrals:      0.022 (MW) /      0.180 (MB)
	Total:                                     0.096 (MW) /      0.768 (MB)

	Size of irrep 0 of tijab amplitudes:       0.004 (MW) /      0.032 (MB)
	Size of irrep 1 of tijab amplitudes:       0.001 (MW) /      0.006 (MB)
	Size of irrep 2 of tijab amplitudes:       0.002 (MW) /      0.016 (MB)
	Size of irrep 3 of tijab amplitudes:       0.002 (MW) /      0.016 (MB)
	Total:                                     0.009 (MW) /      0.069 (MB)

	Nuclear Rep. energy          =      0.00000000000000
	SCF energy                   =   -526.80100810463114
	One-electron energy          =    -35.62975400544902
	Two-electron energy          =     14.75933572855181
	Reference energy             =   -526.80100810463148

*** tstop() called on log-1 at Sat Nov 25 01:58:46 2023
Module time:
	user time   =       0.09 seconds =       0.00 minutes
	system time =       0.05 seconds =       0.00 minutes
	total time  =          0 seconds =       0.00 minutes
Total time:
	user time   =     183.43 seconds =       3.06 minutes
	system time =      15.92 seconds =       0.27 minutes
	total time  =        637 seconds =      10.62 minutes
            **************************
            *                        *
            *        CCENERGY        *
            *                        *
            **************************

    Nuclear Rep. energy (wfn)     =    0.000000000000000
    SCF energy          (wfn)     = -526.801008104631137
    Reference energy    (file100) = -526.801008104631478

    Input parameters:
    -----------------
    Wave function   =     CCSD_T
    Reference wfn   =     RHF
    Brueckner       =     No
    Memory (Mbytes) =     524.3
    Maxiter         =     50
    R_Convergence   =     1.0e-07
    E_Convergence   =     1.0e-06
    Restart         =     Yes
    DIIS            =     Yes
    AO Basis        =     NONE
    ABCD            =     NEW
    Cache Level     =     2
    Cache Type      =     LOW
    Print Level     =     1
    Num. of threads =     1
    # Amps to Print =     10
    Print MP2 Amps? =     No
    Analyze T2 Amps =     No
    Print Pair Ener =     No
    Local CC        =     No
    SCS-MP2         =     False
    SCSN-MP2        =     False
    SCS-CCSD        =     False

MP2 correlation energy -0.1543991593825315
                Solving CC Amplitude Equations
                ------------------------------
  Iter             Energy              RMS        T1Diag      D1Diag    New D1Diag    D2Diag
  ----     ---------------------    ---------   ----------  ----------  ----------   --------
     0        -0.154399159382532    0.000e+00    0.000000    0.000000    0.000000    0.104853
     1        -0.164397131740007    2.263e-02    0.002855    0.004537    0.004537    0.113960
     2        -0.166151539943616    5.772e-03    0.003406    0.005321    0.005321    0.116568
     3        -0.166261684868953    1.093e-03    0.003670    0.005746    0.005746    0.116892
     4        -0.166263613131722    2.265e-04    0.003710    0.005801    0.005801    0.116945
     5        -0.166260803323308    4.831e-05    0.003718    0.005812    0.005812    0.116941
     6        -0.166260636879338    1.196e-05    0.003719    0.005813    0.005813    0.116940
     7        -0.166260733743596    3.397e-06    0.003719    0.005814    0.005814    0.116940
     8        -0.166260753206717    7.618e-07    0.003719    0.005813    0.005813    0.116940
     9        -0.166260752343826    1.858e-07    0.003719    0.005813    0.005813    0.116940
    10        -0.166260752291174    5.649e-08    0.003719    0.005813    0.005813    0.116940

    Iterations converged.


    Largest TIA Amplitudes:
              1   2        -0.0047284589
              2  26        -0.0044522219
              3  36        -0.0044522219
              2  25         0.0029567567
              3  35         0.0029567567
              0  11        -0.0024974727
              2  30        -0.0022328876
              3  40        -0.0022328876
              1   0         0.0021271674
              1   9         0.0016346729

    Largest TIjAb Amplitudes:
      2   2   5   5        -0.0281120730
      2   2  21  21        -0.0281120730
      3   3   5   5        -0.0281120730
      3   3  21  21        -0.0281120730
      2   2  30  30        -0.0271498880
      3   3  40  40        -0.0271498880
      1   1  27  27        -0.0270207011
      1   1  37  37        -0.0270207011
      2   2  27  27        -0.0270077798
      3   3  37  37        -0.0270077798

    SCF energy       (wfn)                    = -526.801008104631137
    Reference energy (file100)                = -526.801008104631478

    Opposite-spin MP2 correlation energy      =   -0.112055843220148
    Same-spin MP2 correlation energy          =   -0.042343316162384
    Singles MP2 correlation energy            =   -0.000000000000000
    MP2 correlation energy                    =   -0.154399159382532
      * MP2 total energy                      = -526.955407264013957

    Opposite-spin CCSD correlation energy     =   -0.125332718750582
    Same-spin CCSD correlation energy         =   -0.040928033540592
    Singles CCSD correlation energy           =    0.000000000000000
    CCSD correlation energy                   =   -0.166260752291174
      * CCSD total energy                     = -526.967268856922601

            **************************
            *                        *
            *        CCTRIPLES       *
            *                        *
            **************************


    Wave function   =    CCSD_T
    Reference wfn   =      RHF

    Nuclear Rep. energy (wfn)                =    0.000000000000000
    SCF energy          (wfn)                = -526.801008104631137
    Reference energy    (file100)            = -526.801008104631478
    CCSD energy         (file100)            =   -0.166260752291174
    Total CCSD energy   (file100)            = -526.967268856922601

    Number of ijk index combinations:               20
    Memory available in words               :        65536000
    Approx. words needed per explicit thread:           37044
    Number of threads for explicit ijk threading:    1

    MKL num_threads set to 1 for explicit threading.

    (T) energy                                =   -0.002532169279756
      * CCSD(T) total energy                  = -526.969801026202390


    Psi4 stopped on: Saturday, 25 November 2023 01:58AM
    Psi4 wall time for execution: 0:00:03.52


    -----------------------------------------------------------------------
          Psi4: An Open-Source Ab Initio Electronic Structure Package
                               Psi4 1.7a1.dev44 

                         Git: Rev {master} 2792bff 


    D. G. A. Smith, L. A. Burns, A. C. Simmonett, R. M. Parrish,
    M. C. Schieber, R. Galvelis, P. Kraus, H. Kruse, R. Di Remigio,
    A. Alenaizan, A. M. James, S. Lehtola, J. P. Misiewicz, M. Scheurer,
    R. A. Shaw, J. B. Schriber, Y. Xie, Z. L. Glick, D. A. Sirianni,
    J. S. O'Brien, J. M. Waldrop, A. Kumar, E. G. Hohenstein,
    B. P. Pritchard, B. R. Brooks, H. F. Schaefer III, A. Yu. Sokolov,
    K. Patkowski, A. E. DePrince III, U. Bozkaya, R. A. King,
    F. A. Evangelista, J. M. Turney, T. D. Crawford, C. D. Sherrill,
    J. Chem. Phys. 152(18) 184108 (2020). https://doi.org/10.1063/5.0006002

                            Additional Code Authors
    E. T. Seidl, C. L. Janssen, E. F. Valeev, M. L. Leininger,
    J. F. Gonthier, R. M. Richard, H. R. McAlexander, M. Saitow, X. Wang,
    P. Verma, M. H. Lechner, and A. Jiang

             Previous Authors, Complete List of Code Contributors,
                       and Citations for Specific Modules
    https://github.com/psi4/psi4/blob/master/codemeta.json
    https://github.com/psi4/psi4/graphs/contributors
    http://psicode.org/psi4manual/master/introduction.html#citing-psifour

    -----------------------------------------------------------------------


    Psi4 started on: Saturday, 25 November 2023 01:38AM

    Process ID: 3879808
    Host:       log-1
    PSIDATADIR: /ext3/miniconda3/share/psi4
    Memory:     500.0 MiB
    Threads:    1
    
  ==> Input QCSchema <==

--------------------------------------------------------------------------
{'driver': 'energy',
 'extras': {'psiapi': True, 'wfn_qcvars_only': True},
 'id': None,
 'keywords': {'FREEZE_CORE': '1', 'function_kwargs': {}},
 'model': {'basis': 'aug-cc-pvdz', 'method': 'ccsd(t)'},
 'molecule': {'atom_labels': ['', ''],
              'atomic_numbers': [18, 18],
              'fix_com': True,
              'fix_orientation': True,
              'fragment_charges': [0.0, 0.0],
              'fragment_multiplicities': [1, 1],
              'fragments': [[0], [1]],
              'geometry': [0.0, 0.0, -3.3070207195512, 0.0, 0.0, 3.307020719551199],
              'mass_numbers': [40, 40],
              'masses': [39.9623831237, 39.9623831237],
              'molecular_charge': 0.0,
              'molecular_multiplicity': 1,
              'name': 'Ar2',
              'provenance': {'creator': 'QCElemental',
                             'routine': 'qcelemental.molparse.from_string',
                             'version': 'v0.25.1'},
              'real': [True, False],
              'schema_name': 'qcschema_molecule',
              'schema_version': 2,
              'symbols': ['Ar', 'Ar'],
              'validated': True},
 'protocols': {'stdout': True},
 'provenance': {'creator': 'QCElemental', 'routine': 'qcelemental.models.results', 'version': 'v0.25.1'},
 'schema_name': 'qcschema_input',
 'schema_version': 1}
--------------------------------------------------------------------------

Scratch directory: /tmp/

*** tstart() called on log-1
*** at Sat Nov 25 01:58:46 2023

   => Loading Basis Set <=

    Name: AUG-CC-PVDZ
    Role: ORBITAL
    Keyword: BASIS
    atoms 1-2 entry AR         line   834 file /ext3/miniconda3/share/psi4/basis/aug-cc-pvdz.gbs 


         ---------------------------------------------------------
                                   SCF
               by Justin Turney, Rob Parrish, Andy Simmonett
                          and Daniel G. A. Smith
                              RHF Reference
                        1 Threads,    500 MiB Core
         ---------------------------------------------------------

  ==> Geometry <==

    Molecular point group: c2v
    Full point group: C_inf_v

    Geometry (in Bohr), charge = 0, multiplicity = 1:

       Center              X                  Y                   Z               Mass       
    ------------   -----------------  -----------------  -----------------  -----------------
         AR           0.000000000000     0.000000000000    -3.307020719551    39.962383123700
      Gh(AR)          0.000000000000     0.000000000000     3.307020719551    39.962383123700

  Running in c2v symmetry.

  Rotational constants: A = ************  B =      0.06887  C =      0.06887 [cm^-1]
  Rotational constants: A = ************  B =   2064.71317  C =   2064.71317 [MHz]
  Nuclear repulsion =    0.000000000000000

  Charge       = 0
  Multiplicity = 1
  Electrons    = 18
  Nalpha       = 9
  Nbeta        = 9

  ==> Algorithm <==

  SCF Algorithm Type is PK.
  DIIS enabled.
  MOM disabled.
  Fractional occupation disabled.
  Guess Type is SAD.
  Energy threshold   = 1.00e-08
  Density threshold  = 1.00e-08
  Integral threshold = 1.00e-12

  ==> Primary Basis <==

  Basis Set: AUG-CC-PVDZ
    Blend: AUG-CC-PVDZ
    Number of shells: 22
    Number of basis functions: 54
    Number of Cartesian functions: 58
    Spherical Harmonics?: true
    Max angular momentum: 2

  ==> Integral Setup <==

  Using in-core PK algorithm.
   Calculation information:
      Number of atoms:                   2
      Number of AO shells:              22
      Number of primitives:            106
      Number of atomic orbitals:        58
      Number of basis functions:        54

      Integral cutoff                 1.00e-12
      Number of threads:                 1

  Performing in-core PK
  Using 2206710 doubles for integral storage.
  We computed 30876 shell quartets total.
  Whereas there are 32131 unique shell quartets.

  ==> DiskJK: Disk-Based J/K Matrices <==

    J tasked:                  Yes
    K tasked:                  Yes
    wK tasked:                  No
    Memory [MiB]:              375
    Schwarz Cutoff:          1E-12

    OpenMP threads:              1

  Minimum eigenvalue in the overlap matrix is 2.8502018996E-02.
  Reciprocal condition number of the overlap matrix is 9.9001819426E-03.
    Using symmetric orthogonalization.

  ==> Pre-Iterations <==

  SCF Guess: Superposition of Atomic Densities via on-the-fly atomic UHF (no occupation information).

   -------------------------
    Irrep   Nso     Nmo    
   -------------------------
     A1        26      26 
     A2         4       4 
     B1        12      12 
     B2        12      12 
   -------------------------
    Total      54      54
   -------------------------

  ==> Iterations <==

                        Total Energy        Delta E     RMS |[F,P]|

   @RHF iter SAD:  -526.79237559316141   -5.26792e+02   0.00000e+00 
   @RHF iter   1:  -526.80075737710376   -8.38178e-03   7.27741e-04 ADIIS/DIIS
   @RHF iter   2:  -526.80099327959601   -2.35902e-04   1.93084e-04 ADIIS/DIIS
   @RHF iter   3:  -526.80100808795976   -1.48084e-05   4.61698e-06 DIIS
   @RHF iter   4:  -526.80100810402621   -1.60665e-08   7.00604e-07 DIIS
   @RHF iter   5:  -526.80100810462966   -6.03450e-10   3.44540e-08 DIIS
   @RHF iter   6:  -526.80100810463205   -2.38742e-12   7.93706e-09 DIIS
  Energy and wave function converged.


  ==> Post-Iterations <==

    Orbital Energies [Eh]
    ---------------------

    Doubly Occupied:                                                      

       1A1  -118.610659     2A1   -12.322800     1B1    -9.571387  
       1B2    -9.571387     3A1    -9.571386     4A1    -1.278862  
       5A1    -0.592234     2B2    -0.592222     2B1    -0.592222  

    Virtual:                                                              

       6A1     0.088355     3B2     0.120335     3B1     0.120335  
       7A1     0.126200     8A1     0.165293     4B2     0.167648  
       4B1     0.167648     9A1     0.254390    10A1     0.497165  
       5B2     0.540842     5B1     0.540842     1A2     0.541311  
      11A1     0.541311    12A1     0.545132     6B2     0.576345  
       6B1     0.576345    13A1     0.629948     2A2     0.796675  
      14A1     0.796675     7B2     0.813078     7B1     0.813078  
      15A1     0.846267     8B2     0.974064     8B1     0.974064  
      16A1     1.056103    17A1     1.368409     3A2     1.610344  
      18A1     1.610344     9B2     1.621656     9B1     1.621656  
      19A1     1.697119    20A1     1.929171    10B2     2.441046  
      10B1     2.441046    21A1     2.470613    22A1     3.103997  
       4A2     3.103997    11B1     3.113334    11B2     3.113334  
      23A1     3.179689    24A1     9.193445    12B2    27.720648  
      12B1    27.720648    25A1    27.744144    26A1   176.828038  

    Final Occupation by Irrep:
             A1    A2    B1    B2 
    DOCC [     5,    0,    2,    2 ]
    NA   [     5,    0,    2,    2 ]
    NB   [     5,    0,    2,    2 ]

  @RHF Final Energy:  -526.80100810463205

   => Energetics <=

    Nuclear Repulsion Energy =              0.0000000000000000
    One-Electron Energy =                -728.1956958459925318
    Two-Electron Energy =                 201.3946877413605137
    Total Energy =                       -526.8010081046320465

Computation Completed


Properties will be evaluated at   0.000000,   0.000000,   0.000000 [a0]

Properties computed using the SCF density matrix


 Multipole Moments:

 ------------------------------------------------------------------------------------
     Multipole            Electronic (a.u.)      Nuclear  (a.u.)        Total (a.u.)
 ------------------------------------------------------------------------------------

 L = 1.  Multiply by 2.5417464519 to convert [e a0] to [Debye]
 Dipole X            :          0.0000000            0.0000000            0.0000000
 Dipole Y            :          0.0000000            0.0000000            0.0000000
 Dipole Z            :         59.5249867          -59.5263730           -0.0013862
 Magnitude           :                                                    0.0013862

 ------------------------------------------------------------------------------------

*** tstop() called on log-1 at Sat Nov 25 01:58:48 2023
Module time:
	user time   =       1.54 seconds =       0.03 minutes
	system time =       0.04 seconds =       0.00 minutes
	total time  =          2 seconds =       0.03 minutes
Total time:
	user time   =     185.14 seconds =       3.09 minutes
	system time =      16.09 seconds =       0.27 minutes
	total time  =        639 seconds =      10.65 minutes
 MINTS: Wrapper to libmints.
   by Justin Turney

   Calculation information:
      Number of threads:                 1
      Number of atoms:                   2
      Number of AO shells:              22
      Number of SO shells:              22
      Number of primitives:            106
      Number of atomic orbitals:        58
      Number of basis functions:        54

      Number of irreps:                  4
      Integral cutoff                 1.00e-12
      Number of functions per irrep: [  26    4   12   12 ]

 OEINTS: Overlap, kinetic, potential, dipole, and quadrupole integrals
         stored in file 35.

      Computing two-electron integrals...done
      Computed 232921 non-zero two-electron integrals.
        Stored in file 33.


*** tstart() called on log-1
*** at Sat Nov 25 01:58:49 2023


	Wfn Parameters:
	--------------------
	Wavefunction         = CCSD_T
	Number of irreps     = 4
	Number of MOs        = 54
	Number of active MOs = 49
	AO-Basis             = NONE
	Semicanonical        = false
	Reference            = RHF
	Print Level          = 1

	IRREP	# MOs	# FZDC	# DOCC	# SOCC	# VIRT	# FZVR
	-----	-----	------	------	------	------	------
	 A1	   26	    3	    2	    0	    21	    0
	 A2	   4	    0	    0	    0	    4	    0
	 B1	   12	    1	    1	    0	    10	    0
	 B2	   12	    1	    1	    0	    10	    0
	Transforming integrals...
	IWL integrals will be deleted.
	(OO|OO)...
	Presorting SO-basis two-electron integrals.
	Sorting File: SO Ints (nn|nn) nbuckets = 1
	Constructing frozen core operators
	Starting first half-transformation.
	Sorting half-transformed integrals.
	First half integral transformation complete.
	Starting second half-transformation.
	Two-electron integral transformation complete.
	(OO|OV)...
	Starting second half-transformation.
	Two-electron integral transformation complete.
	(OO|VV)...
	Starting second half-transformation.
	Two-electron integral transformation complete.
	(OV|OO)...
	Starting first half-transformation.
	Sorting half-transformed integrals.
	First half integral transformation complete.
	Starting second half-transformation.
	Two-electron integral transformation complete.
	(OV|OV)...
	Starting second half-transformation.
	Two-electron integral transformation complete.
	(OV|VV)...
	Starting second half-transformation.
	Two-electron integral transformation complete.
	(VV|OO)...
	Starting first half-transformation.
	Sorting half-transformed integrals.
	First half integral transformation complete.
	Starting second half-transformation.
	Two-electron integral transformation complete.
	(VV|OV)...
	Starting second half-transformation.
	Two-electron integral transformation complete.
	(VV|VV)...
	Starting second half-transformation.
	Two-electron integral transformation complete.
	Frozen core energy     =   -505.93058982773420

	Size of irrep 0 of <ab|cd> integrals:      0.432 (MW) /      3.453 (MB)
	Size of irrep 1 of <ab|cd> integrals:      0.135 (MW) /      1.083 (MB)
	Size of irrep 2 of <ab|cd> integrals:      0.250 (MW) /      2.000 (MB)
	Size of irrep 3 of <ab|cd> integrals:      0.250 (MW) /      2.000 (MB)
	Total:                                     1.067 (MW) /      8.537 (MB)

	Size of irrep 0 of <ia|bc> integrals:      0.041 (MW) /      0.326 (MB)
	Size of irrep 1 of <ia|bc> integrals:      0.010 (MW) /      0.082 (MB)
	Size of irrep 2 of <ia|bc> integrals:      0.022 (MW) /      0.180 (MB)
	Size of irrep 3 of <ia|bc> integrals:      0.022 (MW) /      0.180 (MB)
	Total:                                     0.096 (MW) /      0.768 (MB)

	Size of irrep 0 of tijab amplitudes:       0.004 (MW) /      0.032 (MB)
	Size of irrep 1 of tijab amplitudes:       0.001 (MW) /      0.006 (MB)
	Size of irrep 2 of tijab amplitudes:       0.002 (MW) /      0.016 (MB)
	Size of irrep 3 of tijab amplitudes:       0.002 (MW) /      0.016 (MB)
	Total:                                     0.009 (MW) /      0.069 (MB)

	Nuclear Rep. energy          =      0.00000000000000
	SCF energy                   =   -526.80100810463205
	One-electron energy          =    -35.62975400544910
	Two-electron energy          =     14.75933572855181
	Reference energy             =   -526.80100810463148

*** tstop() called on log-1 at Sat Nov 25 01:58:50 2023
Module time:
	user time   =       0.10 seconds =       0.00 minutes
	system time =       0.04 seconds =       0.00 minutes
	total time  =          1 seconds =       0.02 minutes
Total time:
	user time   =     186.61 seconds =       3.11 minutes
	system time =      16.13 seconds =       0.27 minutes
	total time  =        641 seconds =      10.68 minutes
            **************************
            *                        *
            *        CCENERGY        *
            *                        *
            **************************

    Nuclear Rep. energy (wfn)     =    0.000000000000000
    SCF energy          (wfn)     = -526.801008104632047
    Reference energy    (file100) = -526.801008104631478

    Input parameters:
    -----------------
    Wave function   =     CCSD_T
    Reference wfn   =     RHF
    Brueckner       =     No
    Memory (Mbytes) =     524.3
    Maxiter         =     50
    R_Convergence   =     1.0e-07
    E_Convergence   =     1.0e-06
    Restart         =     Yes
    DIIS            =     Yes
    AO Basis        =     NONE
    ABCD            =     NEW
    Cache Level     =     2
    Cache Type      =     LOW
    Print Level     =     1
    Num. of threads =     1
    # Amps to Print =     10
    Print MP2 Amps? =     No
    Analyze T2 Amps =     No
    Print Pair Ener =     No
    Local CC        =     No
    SCS-MP2         =     False
    SCSN-MP2        =     False
    SCS-CCSD        =     False

MP2 correlation energy -0.1543991593825321
                Solving CC Amplitude Equations
                ------------------------------
  Iter             Energy              RMS        T1Diag      D1Diag    New D1Diag    D2Diag
  ----     ---------------------    ---------   ----------  ----------  ----------   --------
     0        -0.154399159382532    0.000e+00    0.000000    0.000000    0.000000    0.104853
     1        -0.164397131740008    2.263e-02    0.002855    0.004537    0.004537    0.113960
     2        -0.166151539943616    5.772e-03    0.003406    0.005321    0.005321    0.116568
     3        -0.166261684868953    1.093e-03    0.003670    0.005746    0.005746    0.116892
     4        -0.166263613131723    2.265e-04    0.003710    0.005801    0.005801    0.116945
     5        -0.166260803323309    4.831e-05    0.003718    0.005812    0.005812    0.116941
     6        -0.166260636879339    1.196e-05    0.003719    0.005813    0.005813    0.116940
     7        -0.166260733743597    3.397e-06    0.003719    0.005814    0.005814    0.116940
     8        -0.166260753206717    7.618e-07    0.003719    0.005813    0.005813    0.116940
     9        -0.166260752343827    1.858e-07    0.003719    0.005813    0.005813    0.116940
    10        -0.166260752291174    5.649e-08    0.003719    0.005813    0.005813    0.116940

    Iterations converged.


    Largest TIA Amplitudes:
              1   2        -0.0047284589
              2  26         0.0044522219
              3  36         0.0044522219
              2  25         0.0029567567
              3  35         0.0029567567
              0  11         0.0024974727
              2  30        -0.0022328876
              3  40        -0.0022328876
              1   0         0.0021271674
              1   9         0.0016346729

    Largest TIjAb Amplitudes:
      2   2   5   5        -0.0281120730
      2   2  21  21        -0.0281120730
      3   3   5   5        -0.0281120730
      3   3  21  21        -0.0281120730
      2   2  30  30        -0.0271498880
      3   3  40  40        -0.0271498880
      1   1  27  27        -0.0270207011
      1   1  37  37        -0.0270207011
      2   2  27  27        -0.0270077798
      3   3  37  37        -0.0270077798

    SCF energy       (wfn)                    = -526.801008104632047
    Reference energy (file100)                = -526.801008104631478

    Opposite-spin MP2 correlation energy      =   -0.112055843220148
    Same-spin MP2 correlation energy          =   -0.042343316162384
    Singles MP2 correlation energy            =   -0.000000000000000
    MP2 correlation energy                    =   -0.154399159382532
      * MP2 total energy                      = -526.955407264013957

    Opposite-spin CCSD correlation energy     =   -0.125332718750583
    Same-spin CCSD correlation energy         =   -0.040928033540592
    Singles CCSD correlation energy           =    0.000000000000000
    CCSD correlation energy                   =   -0.166260752291174
      * CCSD total energy                     = -526.967268856922601

            **************************
            *                        *
            *        CCTRIPLES       *
            *                        *
            **************************


    Wave function   =    CCSD_T
    Reference wfn   =      RHF

    Nuclear Rep. energy (wfn)                =    0.000000000000000
    SCF energy          (wfn)                = -526.801008104632047
    Reference energy    (file100)            = -526.801008104631478
    CCSD energy         (file100)            =   -0.166260752291174
    Total CCSD energy   (file100)            = -526.967268856922601

    Number of ijk index combinations:               20
    Memory available in words               :        65536000
    Approx. words needed per explicit thread:           37044
    Number of threads for explicit ijk threading:    1

    MKL num_threads set to 1 for explicit threading.

    (T) energy                                =   -0.002532169279756
      * CCSD(T) total energy                  = -526.969801026202390


    Psi4 stopped on: Saturday, 25 November 2023 01:58AM
    Psi4 wall time for execution: 0:00:03.46


    -----------------------------------------------------------------------
          Psi4: An Open-Source Ab Initio Electronic Structure Package
                               Psi4 1.7a1.dev44 

                         Git: Rev {master} 2792bff 


    D. G. A. Smith, L. A. Burns, A. C. Simmonett, R. M. Parrish,
    M. C. Schieber, R. Galvelis, P. Kraus, H. Kruse, R. Di Remigio,
    A. Alenaizan, A. M. James, S. Lehtola, J. P. Misiewicz, M. Scheurer,
    R. A. Shaw, J. B. Schriber, Y. Xie, Z. L. Glick, D. A. Sirianni,
    J. S. O'Brien, J. M. Waldrop, A. Kumar, E. G. Hohenstein,
    B. P. Pritchard, B. R. Brooks, H. F. Schaefer III, A. Yu. Sokolov,
    K. Patkowski, A. E. DePrince III, U. Bozkaya, R. A. King,
    F. A. Evangelista, J. M. Turney, T. D. Crawford, C. D. Sherrill,
    J. Chem. Phys. 152(18) 184108 (2020). https://doi.org/10.1063/5.0006002

                            Additional Code Authors
    E. T. Seidl, C. L. Janssen, E. F. Valeev, M. L. Leininger,
    J. F. Gonthier, R. M. Richard, H. R. McAlexander, M. Saitow, X. Wang,
    P. Verma, M. H. Lechner, and A. Jiang

             Previous Authors, Complete List of Code Contributors,
                       and Citations for Specific Modules
    https://github.com/psi4/psi4/blob/master/codemeta.json
    https://github.com/psi4/psi4/graphs/contributors
    http://psicode.org/psi4manual/master/introduction.html#citing-psifour

    -----------------------------------------------------------------------


    Psi4 started on: Saturday, 25 November 2023 01:38AM

    Process ID: 3879808
    Host:       log-1
    PSIDATADIR: /ext3/miniconda3/share/psi4
    Memory:     500.0 MiB
    Threads:    1
    
  ==> Input QCSchema <==

--------------------------------------------------------------------------
{'driver': 'energy',
 'extras': {'psiapi': True, 'wfn_qcvars_only': True},
 'id': None,
 'keywords': {'FREEZE_CORE': '1', 'function_kwargs': {}},
 'model': {'basis': 'aug-cc-pvdz', 'method': 'ccsd(t)'},
 'molecule': {'atom_labels': ['', ''],
              'atomic_numbers': [18, 18],
              'fix_com': True,
              'fix_orientation': True,
              'fragment_charges': [0.0, 0.0],
              'fragment_multiplicities': [1, 1],
              'fragments': [[0], [1]],
              'geometry': [0.0, 0.0, -3.3070207195512, 0.0, 0.0, 3.3070207195512],
              'mass_numbers': [40, 40],
              'masses': [39.9623831237, 39.9623831237],
              'molecular_charge': 0.0,
              'molecular_multiplicity': 1,
              'name': 'Ar2',
              'provenance': {'creator': 'QCElemental',
                             'routine': 'qcelemental.molparse.from_string',
                             'version': 'v0.25.1'},
              'real': [True, True],
              'schema_name': 'qcschema_molecule',
              'schema_version': 2,
              'symbols': ['Ar', 'Ar'],
              'validated': True},
 'protocols': {'stdout': True},
 'provenance': {'creator': 'QCElemental', 'routine': 'qcelemental.models.results', 'version': 'v0.25.1'},
 'schema_name': 'qcschema_input',
 'schema_version': 1}
--------------------------------------------------------------------------

Scratch directory: /tmp/

*** tstart() called on log-1
*** at Sat Nov 25 01:58:50 2023

   => Loading Basis Set <=

    Name: AUG-CC-PVDZ
    Role: ORBITAL
    Keyword: BASIS
    atoms 1-2 entry AR         line   834 file /ext3/miniconda3/share/psi4/basis/aug-cc-pvdz.gbs 


         ---------------------------------------------------------
                                   SCF
               by Justin Turney, Rob Parrish, Andy Simmonett
                          and Daniel G. A. Smith
                              RHF Reference
                        1 Threads,    500 MiB Core
         ---------------------------------------------------------

  ==> Geometry <==

    Molecular point group: d2h
    Full point group: D_inf_h

    Geometry (in Bohr), charge = 0, multiplicity = 1:

       Center              X                  Y                   Z               Mass       
    ------------   -----------------  -----------------  -----------------  -----------------
         AR           0.000000000000     0.000000000000    -3.307020719551    39.962383123700
         AR           0.000000000000     0.000000000000     3.307020719551    39.962383123700

  Running in d2h symmetry.

  Rotational constants: A = ************  B =      0.06887  C =      0.06887 [cm^-1]
  Rotational constants: A = ************  B =   2064.71317  C =   2064.71317 [MHz]
  Nuclear repulsion =   48.986690359165706

  Charge       = 0
  Multiplicity = 1
  Electrons    = 36
  Nalpha       = 18
  Nbeta        = 18

  ==> Algorithm <==

  SCF Algorithm Type is PK.
  DIIS enabled.
  MOM disabled.
  Fractional occupation disabled.
  Guess Type is SAD.
  Energy threshold   = 1.00e-08
  Density threshold  = 1.00e-08
  Integral threshold = 1.00e-12

  ==> Primary Basis <==

  Basis Set: AUG-CC-PVDZ
    Blend: AUG-CC-PVDZ
    Number of shells: 22
    Number of basis functions: 54
    Number of Cartesian functions: 58
    Spherical Harmonics?: true
    Max angular momentum: 2

  ==> Integral Setup <==

  Using in-core PK algorithm.
   Calculation information:
      Number of atoms:                   2
      Number of AO shells:              22
      Number of primitives:            106
      Number of atomic orbitals:        58
      Number of basis functions:        54

      Integral cutoff                 1.00e-12
      Number of threads:                 1

  Performing in-core PK
  Using 2206710 doubles for integral storage.
  We computed 30876 shell quartets total.
  Whereas there are 32131 unique shell quartets.

  ==> DiskJK: Disk-Based J/K Matrices <==

    J tasked:                  Yes
    K tasked:                  Yes
    wK tasked:                  No
    Memory [MiB]:              375
    Schwarz Cutoff:          1E-12

    OpenMP threads:              1

  Minimum eigenvalue in the overlap matrix is 3.1625788420E-02.
  Reciprocal condition number of the overlap matrix is 1.1857516890E-02.
    Using symmetric orthogonalization.

  ==> Pre-Iterations <==

  SCF Guess: Superposition of Atomic Densities via on-the-fly atomic UHF (no occupation information).

   -------------------------
    Irrep   Nso     Nmo    
   -------------------------
     Ag        13      13 
     B1g        2       2 
     B2g        6       6 
     B3g        6       6 
     Au         2       2 
     B1u       13      13 
     B2u        6       6 
     B3u        6       6 
   -------------------------
    Total      54      54
   -------------------------

  ==> Iterations <==

                        Total Energy        Delta E     RMS |[F,P]|

   @RHF iter SAD: -1053.58739013669856   -1.05359e+03   0.00000e+00 
   @RHF iter   1: -1053.60043979632860   -1.30497e-02   1.47581e-03 ADIIS/DIIS
   @RHF iter   2: -1053.60091970694907   -4.79911e-04   3.84655e-04 ADIIS/DIIS
   @RHF iter   3: -1053.60094931341314   -2.96065e-05   1.15297e-05 DIIS
   @RHF iter   4: -1053.60094938674888   -7.33357e-08   2.78757e-06 DIIS
   @RHF iter   5: -1053.60094939239002   -5.64114e-09   2.98392e-07 DIIS
   @RHF iter   6: -1053.60094939242981   -3.97904e-11   6.65694e-08 DIIS
   @RHF iter   7: -1053.60094939243118   -1.36424e-12   1.13507e-08 DIIS
   @RHF iter   8: -1053.60094939243163   -4.54747e-13   1.68465e-09 DIIS
  Energy and wave function converged.


  ==> Post-Iterations <==

    Orbital Energies [Eh]
    ---------------------

    Doubly Occupied:                                                      

       1B1u -118.609873     1Ag  -118.609873     2B1u  -12.322118  
       2Ag   -12.322108     1B3g   -9.570696     1B2g   -9.570696  
       1B3u   -9.570695     1B2u   -9.570695     3B1u   -9.570692  
       3Ag    -9.570690     4Ag    -1.280111     4B1u   -1.277115  
       5Ag    -0.604311     2B3u   -0.593764     2B2u   -0.593764  
       2B3g   -0.590044     2B2g   -0.590044     5B1u   -0.579990  

    Virtual:                                                              

       6B1u    0.130320     3B2u    0.138085     3B3u    0.138085  
       6Ag     0.147869     3B3g    0.175477     3B2g    0.175477  
       7Ag     0.184274     7B1u    0.282748     8Ag     0.484067  
       4B2u    0.510770     4B3u    0.510770     1B1g    0.536900  
       9Ag     0.536900     8B1u    0.546151     1Au     0.546151  
       4B2g    0.585271     4B3g    0.585271     9B1u    0.666715  
      10Ag     0.939058     5B2u    0.962991     5B3u    0.962991  
       5B3g    0.985186     5B2g    0.985186    10B1u    1.053562  
      11Ag     1.333285    11B1u    1.408475     6B2u    1.573144  
       6B3u    1.573144    12Ag     1.596692    13Ag     1.604355  
       2B1g    1.604355    12B1u    1.616881     2Au     1.616881  
       6B3g    1.669281     6B2g    1.669281    13B1u    1.824124  

    Final Occupation by Irrep:
             Ag   B1g   B2g   B3g    Au   B1u   B2u   B3u 
    DOCC [     5,    0,    2,    2,    0,    5,    2,    2 ]
    NA   [     5,    0,    2,    2,    0,    5,    2,    2 ]
    NB   [     5,    0,    2,    2,    0,    5,    2,    2 ]

  @RHF Final Energy: -1053.60094939243163

   => Energetics <=

    Nuclear Repulsion Energy =             48.9866903591657064
    One-Electron Energy =               -1554.3807261591334736
    Two-Electron Energy =                 451.7930864075361796
    Total Energy =                      -1053.6009493924316303

Computation Completed


Properties will be evaluated at   0.000000,   0.000000,   0.000000 [a0]

Properties computed using the SCF density matrix


 Multipole Moments:

 ------------------------------------------------------------------------------------
     Multipole            Electronic (a.u.)      Nuclear  (a.u.)        Total (a.u.)
 ------------------------------------------------------------------------------------

 L = 1.  Multiply by 2.5417464519 to convert [e a0] to [Debye]
 Dipole X            :          0.0000000            0.0000000            0.0000000
 Dipole Y            :          0.0000000            0.0000000            0.0000000
 Dipole Z            :          0.0000000           -0.0000000           -0.0000000
 Magnitude           :                                                    0.0000000

 ------------------------------------------------------------------------------------

*** tstop() called on log-1 at Sat Nov 25 01:58:52 2023
Module time:
	user time   =       1.56 seconds =       0.03 minutes
	system time =       0.05 seconds =       0.00 minutes
	total time  =          2 seconds =       0.03 minutes
Total time:
	user time   =     188.34 seconds =       3.14 minutes
	system time =      16.31 seconds =       0.27 minutes
	total time  =        643 seconds =      10.72 minutes
 MINTS: Wrapper to libmints.
   by Justin Turney

   Calculation information:
      Number of threads:                 1
      Number of atoms:                   2
      Number of AO shells:              22
      Number of SO shells:              11
      Number of primitives:            106
      Number of atomic orbitals:        58
      Number of basis functions:        54

      Number of irreps:                  8
      Integral cutoff                 1.00e-12
      Number of functions per irrep: [  13    2    6    6    2   13    6    6 ]

 OEINTS: Overlap, kinetic, potential, dipole, and quadrupole integrals
         stored in file 35.

      Computing two-electron integrals...done
      Computed 134055 non-zero two-electron integrals.
        Stored in file 33.


*** tstart() called on log-1
*** at Sat Nov 25 01:58:52 2023


	Wfn Parameters:
	--------------------
	Wavefunction         = CCSD_T
	Number of irreps     = 8
	Number of MOs        = 54
	Number of active MOs = 44
	AO-Basis             = NONE
	Semicanonical        = false
	Reference            = RHF
	Print Level          = 1

	IRREP	# MOs	# FZDC	# DOCC	# SOCC	# VIRT	# FZVR
	-----	-----	------	------	------	------	------
	 Ag	   13	    3	    2	    0	    8	    0
	 B1g	   2	    0	    0	    0	    2	    0
	 B2g	   6	    1	    1	    0	    4	    0
	 B3g	   6	    1	    1	    0	    4	    0
	 Au	   2	    0	    0	    0	    2	    0
	 B1u	   13	    3	    2	    0	    8	    0
	 B2u	   6	    1	    1	    0	    4	    0
	 B3u	   6	    1	    1	    0	    4	    0
	Transforming integrals...
	IWL integrals will be deleted.
	(OO|OO)...
	Presorting SO-basis two-electron integrals.
	Sorting File: SO Ints (nn|nn) nbuckets = 1
	Constructing frozen core operators
	Starting first half-transformation.
	Sorting half-transformed integrals.
	First half integral transformation complete.
	Starting second half-transformation.
	Two-electron integral transformation complete.
	(OO|OV)...
	Starting second half-transformation.
	Two-electron integral transformation complete.
	(OO|VV)...
	Starting second half-transformation.
	Two-electron integral transformation complete.
	(OV|OO)...
	Starting first half-transformation.
	Sorting half-transformed integrals.
	First half integral transformation complete.
	Starting second half-transformation.
	Two-electron integral transformation complete.
	(OV|OV)...
	Starting second half-transformation.
	Two-electron integral transformation complete.
	(OV|VV)...
	Starting second half-transformation.
	Two-electron integral transformation complete.
	(VV|OO)...
	Starting first half-transformation.
	Sorting half-transformed integrals.
	First half integral transformation complete.
	Starting second half-transformation.
	Two-electron integral transformation complete.
	(VV|OV)...
	Starting second half-transformation.
	Two-electron integral transformation complete.
	(VV|VV)...
	Starting second half-transformation.
	Two-electron integral transformation complete.
	Frozen core energy     =  -1051.17146871583623

	Size of irrep 0 of <ab|cd> integrals:      0.040 (MW) /      0.320 (MB)
	Size of irrep 1 of <ab|cd> integrals:      0.016 (MW) /      0.131 (MB)
	Size of irrep 2 of <ab|cd> integrals:      0.026 (MW) /      0.205 (MB)
	Size of irrep 3 of <ab|cd> integrals:      0.026 (MW) /      0.205 (MB)
	Size of irrep 4 of <ab|cd> integrals:      0.016 (MW) /      0.131 (MB)
	Size of irrep 5 of <ab|cd> integrals:      0.040 (MW) /      0.320 (MB)
	Size of irrep 6 of <ab|cd> integrals:      0.026 (MW) /      0.205 (MB)
	Size of irrep 7 of <ab|cd> integrals:      0.026 (MW) /      0.205 (MB)
	Total:                                     0.215 (MW) /      1.721 (MB)

	Size of irrep 0 of <ia|bc> integrals:      0.010 (MW) /      0.077 (MB)
	Size of irrep 1 of <ia|bc> integrals:      0.003 (MW) /      0.025 (MB)
	Size of irrep 2 of <ia|bc> integrals:      0.006 (MW) /      0.046 (MB)
	Size of irrep 3 of <ia|bc> integrals:      0.006 (MW) /      0.046 (MB)
	Size of irrep 4 of <ia|bc> integrals:      0.003 (MW) /      0.025 (MB)
	Size of irrep 5 of <ia|bc> integrals:      0.010 (MW) /      0.077 (MB)
	Size of irrep 6 of <ia|bc> integrals:      0.006 (MW) /      0.046 (MB)
	Size of irrep 7 of <ia|bc> integrals:      0.006 (MW) /      0.046 (MB)
	Total:                                     0.048 (MW) /      0.387 (MB)

	Size of irrep 0 of tijab amplitudes:       0.002 (MW) /      0.019 (MB)
	Size of irrep 1 of tijab amplitudes:       0.001 (MW) /      0.004 (MB)
	Size of irrep 2 of tijab amplitudes:       0.001 (MW) /      0.010 (MB)
	Size of irrep 3 of tijab amplitudes:       0.001 (MW) /      0.010 (MB)
	Size of irrep 4 of tijab amplitudes:       0.001 (MW) /      0.004 (MB)
	Size of irrep 5 of tijab amplitudes:       0.002 (MW) /      0.019 (MB)
	Size of irrep 6 of tijab amplitudes:       0.001 (MW) /      0.010 (MB)
	Size of irrep 7 of tijab amplitudes:       0.001 (MW) /      0.010 (MB)
	Total:                                     0.011 (MW) /      0.088 (MB)

	Nuclear Rep. energy          =     48.98669035916571
	SCF energy                   =  -1053.60094939243163
	One-electron energy          =    -90.61405665559433
	Two-electron energy          =     39.19788561983150
	Reference energy             =  -1053.60094939243345

*** tstop() called on log-1 at Sat Nov 25 01:58:53 2023
Module time:
	user time   =       0.05 seconds =       0.00 minutes
	system time =       0.04 seconds =       0.00 minutes
	total time  =          1 seconds =       0.02 minutes
Total time:
	user time   =     189.23 seconds =       3.15 minutes
	system time =      16.36 seconds =       0.27 minutes
	total time  =        644 seconds =      10.73 minutes
            **************************
            *                        *
            *        CCENERGY        *
            *                        *
            **************************

    Nuclear Rep. energy (wfn)     =   48.986690359165706
    SCF energy          (wfn)     = -1053.600949392431630
    Reference energy    (file100) = -1053.600949392433449

    Input parameters:
    -----------------
    Wave function   =     CCSD_T
    Reference wfn   =     RHF
    Brueckner       =     No
    Memory (Mbytes) =     524.3
    Maxiter         =     50
    R_Convergence   =     1.0e-07
    E_Convergence   =     1.0e-06
    Restart         =     Yes
    DIIS            =     Yes
    AO Basis        =     NONE
    ABCD            =     NEW
    Cache Level     =     2
    Cache Type      =     LOW
    Print Level     =     1
    Num. of threads =     1
    # Amps to Print =     10
    Print MP2 Amps? =     No
    Analyze T2 Amps =     No
    Print Pair Ener =     No
    Local CC        =     No
    SCS-MP2         =     False
    SCSN-MP2        =     False
    SCS-CCSD        =     False

MP2 correlation energy -0.3097347294320475
                Solving CC Amplitude Equations
                ------------------------------
  Iter             Energy              RMS        T1Diag      D1Diag    New D1Diag    D2Diag
  ----     ---------------------    ---------   ----------  ----------  ----------   --------
     0        -0.309734729432047    0.000e+00    0.000000    0.000000    0.000000    0.106116
     1        -0.329493752474014    3.209e-02    0.002961    0.005683    0.005683    0.115127
     2        -0.333018961082666    8.192e-03    0.003520    0.006671    0.006671    0.117795
     3        -0.333243626360999    1.579e-03    0.003796    0.007191    0.007191    0.118129
     4        -0.333246967919449    3.231e-04    0.003839    0.007266    0.007266    0.118186
     5        -0.333241209293295    6.548e-05    0.003847    0.007278    0.007278    0.118183
     6        -0.333241058476027    1.317e-05    0.003848    0.007280    0.007280    0.118182
     7        -0.333241234297348    3.944e-06    0.003848    0.007280    0.007280    0.118182
     8        -0.333241260489528    8.437e-07    0.003848    0.007280    0.007280    0.118182
     9        -0.333241256813704    1.986e-07    0.003848    0.007280    0.007280    0.118182
    10        -0.333241257491183    6.178e-08    0.003848    0.007280    0.007280    0.118182

    Iterations converged.


    Largest TIA Amplitudes:
              1   1        -0.0063914376
              6  28         0.0060229899
              7  32         0.0060229899
              2  10         0.0049060731
              3  14         0.0049060731
              5  20        -0.0044637589
              1   4         0.0028191573
              4  25         0.0025680682
              0   5         0.0024571308
              6  30        -0.0023948654

    Largest TIjAb Amplitudes:
      1   1   2   2        -0.0211999212
      5   5  23  23        -0.0194046250
      1   5   2  23         0.0183121080
      5   1  23   2         0.0183121080
      1   1  23  23        -0.0167773988
      5   5   2   2        -0.0164016475
      5   5  11  11        -0.0150537650
      5   5  15  15        -0.0150537650
      5   5   4   4        -0.0149424149
      2   2  11  11        -0.0148996315

    SCF energy       (wfn)                    = -1053.600949392431630
    Reference energy (file100)                = -1053.600949392433449

    Opposite-spin MP2 correlation energy      =   -0.224557570427667
    Same-spin MP2 correlation energy          =   -0.085177159004381
    Singles MP2 correlation energy            =   -0.000000000000000
    MP2 correlation energy                    =   -0.309734729432047
      * MP2 total energy                      = -1053.910684121865415

    Opposite-spin CCSD correlation energy     =   -0.250964958624080
    Same-spin CCSD correlation energy         =   -0.082276298867103
    Singles CCSD correlation energy           =    0.000000000000000
    CCSD correlation energy                   =   -0.333241257491183
      * CCSD total energy                     = -1053.934190649924631

            **************************
            *                        *
            *        CCTRIPLES       *
            *                        *
            **************************


    Wave function   =    CCSD_T
    Reference wfn   =      RHF

    Nuclear Rep. energy (wfn)                =   48.986690359165706
    SCF energy          (wfn)                = -1053.600949392431630
    Reference energy    (file100)            = -1053.600949392433449
    CCSD energy         (file100)            =   -0.333241257491183
    Total CCSD energy   (file100)            = -1053.934190649924631

    Number of ijk index combinations:              120
    Memory available in words               :        65536000
    Approx. words needed per explicit thread:            2048
    Number of threads for explicit ijk threading:    1

    MKL num_threads set to 1 for explicit threading.

    (T) energy                                =   -0.005142320237063
      * CCSD(T) total energy                  = -1053.939332970161786


    Psi4 stopped on: Saturday, 25 November 2023 01:58AM
    Psi4 wall time for execution: 0:00:03.03


  //>>>>>>>>>>>>>>>>>>>>>>>>>>>>>>>>>>>//
  //          ManyBody Results         //
  //<<<<<<<<<<<<<<<<<<<<<<<<<<<<<<<<<<<//


   ==> N-Body: Counterpoise Corrected (CP) energies <==

        n-Body     Total Energy            Interaction Energy                          N-body Contribution to Interaction Energy
                   [Eh]                    [Eh]                  [kcal/mol]            [Eh]                  [kcal/mol]
             1  N/A                         0.000000000000        0.000000000000        0.000000000000        0.000000000000
  FULL/RTN   2  N/A                         0.000269082243        0.168851656704        0.000269082243        0.168851656704


Scratch directory: /tmp/

  //>>>>>>>>>>>>>>>>>>>>>>>>>>>>>>>>>>>>>//
  // ManyBody Setup: N-Body Levels [1, 2]//
  //<<<<<<<<<<<<<<<<<<<<<<<<<<<<<<<<<<<<<//

        Number of 1-body computations:     2
        Number of 2-body computations:     1

    -----------------------------------------------------------------------
          Psi4: An Open-Source Ab Initio Electronic Structure Package
                               Psi4 1.7a1.dev44 

                         Git: Rev {master} 2792bff 


    D. G. A. Smith, L. A. Burns, A. C. Simmonett, R. M. Parrish,
    M. C. Schieber, R. Galvelis, P. Kraus, H. Kruse, R. Di Remigio,
    A. Alenaizan, A. M. James, S. Lehtola, J. P. Misiewicz, M. Scheurer,
    R. A. Shaw, J. B. Schriber, Y. Xie, Z. L. Glick, D. A. Sirianni,
    J. S. O'Brien, J. M. Waldrop, A. Kumar, E. G. Hohenstein,
    B. P. Pritchard, B. R. Brooks, H. F. Schaefer III, A. Yu. Sokolov,
    K. Patkowski, A. E. DePrince III, U. Bozkaya, R. A. King,
    F. A. Evangelista, J. M. Turney, T. D. Crawford, C. D. Sherrill,
    J. Chem. Phys. 152(18) 184108 (2020). https://doi.org/10.1063/5.0006002

                            Additional Code Authors
    E. T. Seidl, C. L. Janssen, E. F. Valeev, M. L. Leininger,
    J. F. Gonthier, R. M. Richard, H. R. McAlexander, M. Saitow, X. Wang,
    P. Verma, M. H. Lechner, and A. Jiang

             Previous Authors, Complete List of Code Contributors,
                       and Citations for Specific Modules
    https://github.com/psi4/psi4/blob/master/codemeta.json
    https://github.com/psi4/psi4/graphs/contributors
    http://psicode.org/psi4manual/master/introduction.html#citing-psifour

    -----------------------------------------------------------------------


    Psi4 started on: Saturday, 25 November 2023 01:38AM

    Process ID: 3879808
    Host:       log-1
    PSIDATADIR: /ext3/miniconda3/share/psi4
    Memory:     500.0 MiB
    Threads:    1
    
  ==> Input QCSchema <==

--------------------------------------------------------------------------
{'driver': 'energy',
 'extras': {'psiapi': True, 'wfn_qcvars_only': True},
 'id': None,
 'keywords': {'FREEZE_CORE': '1', 'function_kwargs': {}},
 'model': {'basis': 'aug-cc-pvdz', 'method': 'ccsd(t)'},
 'molecule': {'atom_labels': ['', ''],
              'atomic_numbers': [18, 18],
              'fix_com': True,
              'fix_orientation': True,
              'fragment_charges': [0.0, 0.0],
              'fragment_multiplicities': [1, 1],
              'fragments': [[0], [1]],
              'geometry': [0.0, 0.0, -3.543236485233428, 0.0, 0.0, 3.5432364852334275],
              'mass_numbers': [40, 40],
              'masses': [39.9623831237, 39.9623831237],
              'molecular_charge': 0.0,
              'molecular_multiplicity': 1,
              'name': 'Ar2',
              'provenance': {'creator': 'QCElemental',
                             'routine': 'qcelemental.molparse.from_string',
                             'version': 'v0.25.1'},
              'real': [False, True],
              'schema_name': 'qcschema_molecule',
              'schema_version': 2,
              'symbols': ['Ar', 'Ar'],
              'validated': True},
 'protocols': {'stdout': True},
 'provenance': {'creator': 'QCElemental', 'routine': 'qcelemental.models.results', 'version': 'v0.25.1'},
 'schema_name': 'qcschema_input',
 'schema_version': 1}
--------------------------------------------------------------------------

Scratch directory: /tmp/

*** tstart() called on log-1
*** at Sat Nov 25 01:58:53 2023

   => Loading Basis Set <=

    Name: AUG-CC-PVDZ
    Role: ORBITAL
    Keyword: BASIS
    atoms 1-2 entry AR         line   834 file /ext3/miniconda3/share/psi4/basis/aug-cc-pvdz.gbs 


         ---------------------------------------------------------
                                   SCF
               by Justin Turney, Rob Parrish, Andy Simmonett
                          and Daniel G. A. Smith
                              RHF Reference
                        1 Threads,    500 MiB Core
         ---------------------------------------------------------

  ==> Geometry <==

    Molecular point group: c2v
    Full point group: C_inf_v

    Geometry (in Bohr), charge = 0, multiplicity = 1:

       Center              X                  Y                   Z               Mass       
    ------------   -----------------  -----------------  -----------------  -----------------
      Gh(AR)          0.000000000000     0.000000000000    -3.543236485233    39.962383123700
         AR           0.000000000000     0.000000000000     3.543236485233    39.962383123700

  Running in c2v symmetry.

  Rotational constants: A = ************  B =      0.05999  C =      0.05999 [cm^-1]
  Rotational constants: A = ************  B =   1798.59458  C =   1798.59458 [MHz]
  Nuclear repulsion =    0.000000000000000

  Charge       = 0
  Multiplicity = 1
  Electrons    = 18
  Nalpha       = 9
  Nbeta        = 9

  ==> Algorithm <==

  SCF Algorithm Type is PK.
  DIIS enabled.
  MOM disabled.
  Fractional occupation disabled.
  Guess Type is SAD.
  Energy threshold   = 1.00e-08
  Density threshold  = 1.00e-08
  Integral threshold = 1.00e-12

  ==> Primary Basis <==

  Basis Set: AUG-CC-PVDZ
    Blend: AUG-CC-PVDZ
    Number of shells: 22
    Number of basis functions: 54
    Number of Cartesian functions: 58
    Spherical Harmonics?: true
    Max angular momentum: 2

  ==> Integral Setup <==

  Using in-core PK algorithm.
   Calculation information:
      Number of atoms:                   2
      Number of AO shells:              22
      Number of primitives:            106
      Number of atomic orbitals:        58
      Number of basis functions:        54

      Integral cutoff                 1.00e-12
      Number of threads:                 1

  Performing in-core PK
  Using 2206710 doubles for integral storage.
  We computed 30083 shell quartets total.
  Whereas there are 32131 unique shell quartets.

  ==> DiskJK: Disk-Based J/K Matrices <==

    J tasked:                  Yes
    K tasked:                  Yes
    wK tasked:                  No
    Memory [MiB]:              375
    Schwarz Cutoff:          1E-12

    OpenMP threads:              1

  Minimum eigenvalue in the overlap matrix is 3.1774657057E-02.
  Reciprocal condition number of the overlap matrix is 1.1516301865E-02.
    Using symmetric orthogonalization.

  ==> Pre-Iterations <==

  SCF Guess: Superposition of Atomic Densities via on-the-fly atomic UHF (no occupation information).

   -------------------------
    Irrep   Nso     Nmo    
   -------------------------
     A1        26      26 
     A2         4       4 
     B1        12      12 
     B2        12      12 
   -------------------------
    Total      54      54
   -------------------------

  ==> Iterations <==

                        Total Energy        Delta E     RMS |[F,P]|

   @RHF iter SAD:  -526.79237559316175   -5.26792e+02   0.00000e+00 
   @RHF iter   1:  -526.80075256969371   -8.37698e-03   7.27234e-04 ADIIS/DIIS
   @RHF iter   2:  -526.80098853090578   -2.35961e-04   1.93022e-04 ADIIS/DIIS
   @RHF iter   3:  -526.80100334464657   -1.48137e-05   4.67551e-06 DIIS
   @RHF iter   4:  -526.80100336134763   -1.67011e-08   7.11456e-07 DIIS
   @RHF iter   5:  -526.80100336197836   -6.30735e-10   4.56897e-08 DIIS
   @RHF iter   6:  -526.80100336198200   -3.63798e-12   9.62082e-09 DIIS
  Energy and wave function converged.


  ==> Post-Iterations <==

    Orbital Energies [Eh]
    ---------------------

    Doubly Occupied:                                                      

       1A1  -118.610671     2A1   -12.322813     1B2    -9.571399  
       1B1    -9.571399     3A1    -9.571396     4A1    -1.278873  
       5A1    -0.592238     2B1    -0.592236     2B2    -0.592236  

    Virtual:                                                              

       6A1     0.087780     3B2     0.119647     3B1     0.119647  
       7A1     0.126165     8A1     0.162595     4B2     0.165862  
       4B1     0.165862     9A1     0.247667    10A1     0.503141  
       5B1     0.540840     5B2     0.540840     1A2     0.541376  
      11A1     0.541376    12A1     0.556863     6B1     0.578224  
       6B2     0.578224    13A1     0.607393     2A2     0.796606  
      14A1     0.796606     7B1     0.805391     7B2     0.805391  
      15A1     0.844256     8B1     0.974116     8B2     0.974116  
      16A1     1.012743    17A1     1.366697     3A2     1.610269  
      18A1     1.610269     9B1     1.616588     9B2     1.616588  
      19A1     1.666809    20A1     1.927860    10B1     2.440834  
      10B2     2.440834    21A1     2.456099    22A1     3.103960  
       4A2     3.103960    11B1     3.109141    11B2     3.109141  
      23A1     3.152486    24A1     9.191756    12B1    27.720292  
      12B2    27.720292    25A1    27.735119    26A1   176.824360  

    Final Occupation by Irrep:
             A1    A2    B1    B2 
    DOCC [     5,    0,    2,    2 ]
    NA   [     5,    0,    2,    2 ]
    NB   [     5,    0,    2,    2 ]

  @RHF Final Energy:  -526.80100336198200

   => Energetics <=

    Nuclear Repulsion Energy =              0.0000000000000000
    One-Electron Energy =                -728.1954889439606404
    Two-Electron Energy =                 201.3944855819786710
    Total Energy =                       -526.8010033619819978

Computation Completed


Properties will be evaluated at   0.000000,   0.000000,   0.000000 [a0]

Properties computed using the SCF density matrix


 Multipole Moments:

 ------------------------------------------------------------------------------------
     Multipole            Electronic (a.u.)      Nuclear  (a.u.)        Total (a.u.)
 ------------------------------------------------------------------------------------

 L = 1.  Multiply by 2.5417464519 to convert [e a0] to [Debye]
 Dipole X            :          0.0000000            0.0000000            0.0000000
 Dipole Y            :          0.0000000            0.0000000            0.0000000
 Dipole Z            :        -63.7765366           63.7782567            0.0017202
 Magnitude           :                                                    0.0017202

 ------------------------------------------------------------------------------------

*** tstop() called on log-1 at Sat Nov 25 01:58:55 2023
Module time:
	user time   =       1.49 seconds =       0.02 minutes
	system time =       0.04 seconds =       0.00 minutes
	total time  =          2 seconds =       0.03 minutes
Total time:
	user time   =     191.02 seconds =       3.18 minutes
	system time =      16.53 seconds =       0.28 minutes
	total time  =        646 seconds =      10.77 minutes
 MINTS: Wrapper to libmints.
   by Justin Turney

   Calculation information:
      Number of threads:                 1
      Number of atoms:                   2
      Number of AO shells:              22
      Number of SO shells:              22
      Number of primitives:            106
      Number of atomic orbitals:        58
      Number of basis functions:        54

      Number of irreps:                  4
      Integral cutoff                 1.00e-12
      Number of functions per irrep: [  26    4   12   12 ]

 OEINTS: Overlap, kinetic, potential, dipole, and quadrupole integrals
         stored in file 35.

      Computing two-electron integrals...done
      Computed 223281 non-zero two-electron integrals.
        Stored in file 33.


*** tstart() called on log-1
*** at Sat Nov 25 01:58:56 2023


	Wfn Parameters:
	--------------------
	Wavefunction         = CCSD_T
	Number of irreps     = 4
	Number of MOs        = 54
	Number of active MOs = 49
	AO-Basis             = NONE
	Semicanonical        = false
	Reference            = RHF
	Print Level          = 1

	IRREP	# MOs	# FZDC	# DOCC	# SOCC	# VIRT	# FZVR
	-----	-----	------	------	------	------	------
	 A1	   26	    3	    2	    0	    21	    0
	 A2	   4	    0	    0	    0	    4	    0
	 B1	   12	    1	    1	    0	    10	    0
	 B2	   12	    1	    1	    0	    10	    0
	Transforming integrals...
	IWL integrals will be deleted.
	(OO|OO)...
	Presorting SO-basis two-electron integrals.
	Sorting File: SO Ints (nn|nn) nbuckets = 1
	Constructing frozen core operators
	Starting first half-transformation.
	Sorting half-transformed integrals.
	First half integral transformation complete.
	Starting second half-transformation.
	Two-electron integral transformation complete.
	(OO|OV)...
	Starting second half-transformation.
	Two-electron integral transformation complete.
	(OO|VV)...
	Starting second half-transformation.
	Two-electron integral transformation complete.
	(OV|OO)...
	Starting first half-transformation.
	Sorting half-transformed integrals.
	First half integral transformation complete.
	Starting second half-transformation.
	Two-electron integral transformation complete.
	(OV|OV)...
	Starting second half-transformation.
	Two-electron integral transformation complete.
	(OV|VV)...
	Starting second half-transformation.
	Two-electron integral transformation complete.
	(VV|OO)...
	Starting first half-transformation.
	Sorting half-transformed integrals.
	First half integral transformation complete.
	Starting second half-transformation.
	Two-electron integral transformation complete.
	(VV|OV)...
	Starting second half-transformation.
	Two-electron integral transformation complete.
	(VV|VV)...
	Starting second half-transformation.
	Two-electron integral transformation complete.
	Frozen core energy     =   -505.93058702928568

	Size of irrep 0 of <ab|cd> integrals:      0.432 (MW) /      3.453 (MB)
	Size of irrep 1 of <ab|cd> integrals:      0.135 (MW) /      1.083 (MB)
	Size of irrep 2 of <ab|cd> integrals:      0.250 (MW) /      2.000 (MB)
	Size of irrep 3 of <ab|cd> integrals:      0.250 (MW) /      2.000 (MB)
	Total:                                     1.067 (MW) /      8.537 (MB)

	Size of irrep 0 of <ia|bc> integrals:      0.041 (MW) /      0.326 (MB)
	Size of irrep 1 of <ia|bc> integrals:      0.010 (MW) /      0.082 (MB)
	Size of irrep 2 of <ia|bc> integrals:      0.022 (MW) /      0.180 (MB)
	Size of irrep 3 of <ia|bc> integrals:      0.022 (MW) /      0.180 (MB)
	Total:                                     0.096 (MW) /      0.768 (MB)

	Size of irrep 0 of tijab amplitudes:       0.004 (MW) /      0.032 (MB)
	Size of irrep 1 of tijab amplitudes:       0.001 (MW) /      0.006 (MB)
	Size of irrep 2 of tijab amplitudes:       0.002 (MW) /      0.016 (MB)
	Size of irrep 3 of tijab amplitudes:       0.002 (MW) /      0.016 (MB)
	Total:                                     0.009 (MW) /      0.069 (MB)

	Nuclear Rep. energy          =      0.00000000000000
	SCF energy                   =   -526.80100336198200
	One-electron energy          =    -35.62966768878356
	Two-electron energy          =     14.75925135608859
	Reference energy             =   -526.80100336198063

*** tstop() called on log-1 at Sat Nov 25 01:58:56 2023
Module time:
	user time   =       0.09 seconds =       0.00 minutes
	system time =       0.05 seconds =       0.00 minutes
	total time  =          0 seconds =       0.00 minutes
Total time:
	user time   =     192.46 seconds =       3.21 minutes
	system time =      16.59 seconds =       0.28 minutes
	total time  =        647 seconds =      10.78 minutes
            **************************
            *                        *
            *        CCENERGY        *
            *                        *
            **************************

    Nuclear Rep. energy (wfn)     =    0.000000000000000
    SCF energy          (wfn)     = -526.801003361981998
    Reference energy    (file100) = -526.801003361980634

    Input parameters:
    -----------------
    Wave function   =     CCSD_T
    Reference wfn   =     RHF
    Brueckner       =     No
    Memory (Mbytes) =     524.3
    Maxiter         =     50
    R_Convergence   =     1.0e-07
    E_Convergence   =     1.0e-06
    Restart         =     Yes
    DIIS            =     Yes
    AO Basis        =     NONE
    ABCD            =     NEW
    Cache Level     =     2
    Cache Type      =     LOW
    Print Level     =     1
    Num. of threads =     1
    # Amps to Print =     10
    Print MP2 Amps? =     No
[...]
 'schema_version': 1}
--------------------------------------------------------------------------

Scratch directory: /tmp/

*** tstart() called on log-1
*** at Sat Nov 25 02:00:22 2023

   => Loading Basis Set <=

    Name: AUG-CC-PVDZ
    Role: ORBITAL
    Keyword: BASIS
    atoms 1-2 entry AR         line   834 file /ext3/miniconda3/share/psi4/basis/aug-cc-pvdz.gbs 


         ---------------------------------------------------------
                                   SCF
               by Justin Turney, Rob Parrish, Andy Simmonett
                          and Daniel G. A. Smith
                              RHF Reference
                        1 Threads,    500 MiB Core
         ---------------------------------------------------------

  ==> Geometry <==

    Molecular point group: d2h
    Full point group: D_inf_h

    Geometry (in Bohr), charge = 0, multiplicity = 1:

       Center              X                  Y                   Z               Mass       
    ------------   -----------------  -----------------  -----------------  -----------------
         AR           0.000000000000     0.000000000000    -5.669178376373    39.962383123700
         AR           0.000000000000     0.000000000000     5.669178376373    39.962383123700

  Running in d2h symmetry.

  Rotational constants: A = ************  B =      0.02344  C =      0.02344 [cm^-1]
  Rotational constants: A = ************  B =    702.57601  C =    702.57601 [MHz]
  Nuclear repulsion =   28.575569376180024

  Charge       = 0
  Multiplicity = 1
  Electrons    = 36
  Nalpha       = 18
  Nbeta        = 18

  ==> Algorithm <==

  SCF Algorithm Type is PK.
  DIIS enabled.
  MOM disabled.
  Fractional occupation disabled.
  Guess Type is SAD.
  Energy threshold   = 1.00e-08
  Density threshold  = 1.00e-08
  Integral threshold = 1.00e-12

  ==> Primary Basis <==

  Basis Set: AUG-CC-PVDZ
    Blend: AUG-CC-PVDZ
    Number of shells: 22
    Number of basis functions: 54
    Number of Cartesian functions: 58
    Spherical Harmonics?: true
    Max angular momentum: 2

  ==> Integral Setup <==

  Using in-core PK algorithm.
   Calculation information:
      Number of atoms:                   2
      Number of AO shells:              22
      Number of primitives:            106
      Number of atomic orbitals:        58
      Number of basis functions:        54

      Integral cutoff                 1.00e-12
      Number of threads:                 1

  Performing in-core PK
  Using 2206710 doubles for integral storage.
  We computed 21300 shell quartets total.
  Whereas there are 32131 unique shell quartets.

  ==> DiskJK: Disk-Based J/K Matrices <==

    J tasked:                  Yes
    K tasked:                  Yes
    wK tasked:                  No
    Memory [MiB]:              375
    Schwarz Cutoff:          1E-12

    OpenMP threads:              1

  Minimum eigenvalue in the overlap matrix is 4.8029169108E-02.
  Reciprocal condition number of the overlap matrix is 2.1562637947E-02.
    Using symmetric orthogonalization.

  ==> Pre-Iterations <==

  SCF Guess: Superposition of Atomic Densities via on-the-fly atomic UHF (no occupation information).

   -------------------------
    Irrep   Nso     Nmo    
   -------------------------
     Ag        13      13 
     B1g        2       2 
     B2g        6       6 
     B3g        6       6 
     Au         2       2 
     B1u       13      13 
     B2u        6       6 
     B3u        6       6 
   -------------------------
    Total      54      54
   -------------------------

  ==> Iterations <==

                        Total Energy        Delta E     RMS |[F,P]|

   @RHF iter SAD: -1053.58475159969112   -1.05358e+03   0.00000e+00 
   @RHF iter   1: -1053.60144756320778   -1.66960e-02   1.45072e-03 ADIIS/DIIS
   @RHF iter   2: -1053.60191838952551   -4.70826e-04   3.85586e-04 ADIIS/DIIS
   @RHF iter   3: -1053.60194798243901   -2.95929e-05   8.90630e-06 DIIS
   @RHF iter   4: -1053.60194800683917   -2.44002e-08   1.26412e-06 DIIS
   @RHF iter   5: -1053.60194800773183   -8.92669e-10   2.10221e-08 DIIS
   @RHF iter   6: -1053.60194800773206   -2.27374e-13   2.66516e-09 DIIS
  Energy and wave function converged.


  ==> Post-Iterations <==

    Orbital Energies [Eh]
    ---------------------

    Doubly Occupied:                                                      

       1B1u -118.610574     1Ag  -118.610574     2B1u  -12.322793  
       2Ag   -12.322791     3B1u   -9.571361     3Ag    -9.571360  
       1B2g   -9.571359     1B3g   -9.571359     1B3u   -9.571358  
       1B2u   -9.571358     4Ag    -1.278896     4B1u   -1.278892  
       5Ag    -0.592365     2B3u   -0.592272     2B2u   -0.592272  
       2B2g   -0.592253     2B3g   -0.592253     5B1u   -0.592163  

    Virtual:                                                              

       6Ag     0.122022     3B3u    0.142137     3B2u    0.142137  
       6B1u    0.153911     3B3g    0.158133     3B2g    0.158133  
       7Ag     0.163316     7B1u    0.206684     8Ag     0.541383  
       1B1g    0.541383     8B1u    0.541385     1Au     0.541385  
       4B3u    0.541389     4B2u    0.541389     4B3g    0.541428  
       4B2g    0.541428     9Ag     0.541645     9B1u    0.542345  
      10Ag     0.960263     5B3u    0.962867     5B2u    0.962867  
       5B2g    0.975957     5B3g    0.975957    10B1u    0.997195  
      11Ag     1.314904    11B1u    1.342172     2B1g    1.610223  
      12Ag     1.610223     2Au     1.610224    12B1u    1.610224  
       6B3u    1.610241     6B2u    1.610241     6B3g    1.610282  
       6B2g    1.610282    13Ag     1.610754    13B1u    1.611976  

    Final Occupation by Irrep:
             Ag   B1g   B2g   B3g    Au   B1u   B2u   B3u 
    DOCC [     5,    0,    2,    2,    0,    5,    2,    2 ]
    NA   [     5,    0,    2,    2,    0,    5,    2,    2 ]
    NB   [     5,    0,    2,    2,    0,    5,    2,    2 ]

  @RHF Final Energy: -1053.60194800773206

   => Energetics <=

    Nuclear Repulsion Energy =             28.5755693761800238
    One-Electron Energy =               -1513.5425275867505661
    Two-Electron Energy =                 431.3650102028383913
    Total Energy =                      -1053.6019480077320623

Computation Completed


Properties will be evaluated at   0.000000,   0.000000,   0.000000 [a0]

Properties computed using the SCF density matrix


 Multipole Moments:

 ------------------------------------------------------------------------------------
     Multipole            Electronic (a.u.)      Nuclear  (a.u.)        Total (a.u.)
 ------------------------------------------------------------------------------------

 L = 1.  Multiply by 2.5417464519 to convert [e a0] to [Debye]
 Dipole X            :          0.0000000            0.0000000            0.0000000
 Dipole Y            :          0.0000000            0.0000000            0.0000000
 Dipole Z            :          0.0000000            0.0000000            0.0000000
 Magnitude           :                                                    0.0000000

 ------------------------------------------------------------------------------------

*** tstop() called on log-1 at Sat Nov 25 02:00:23 2023
Module time:
	user time   =       0.95 seconds =       0.02 minutes
	system time =       0.05 seconds =       0.00 minutes
	total time  =          1 seconds =       0.02 minutes
Total time:
	user time   =     268.51 seconds =       4.48 minutes
	system time =      23.61 seconds =       0.39 minutes
	total time  =        734 seconds =      12.23 minutes
 MINTS: Wrapper to libmints.
   by Justin Turney

   Calculation information:
      Number of threads:                 1
      Number of atoms:                   2
      Number of AO shells:              22
      Number of SO shells:              11
      Number of primitives:            106
      Number of atomic orbitals:        58
      Number of basis functions:        54

      Number of irreps:                  8
      Integral cutoff                 1.00e-12
      Number of functions per irrep: [  13    2    6    6    2   13    6    6 ]

 OEINTS: Overlap, kinetic, potential, dipole, and quadrupole integrals
         stored in file 35.

      Computing two-electron integrals...done
      Computed 134055 non-zero two-electron integrals.
        Stored in file 33.


*** tstart() called on log-1
*** at Sat Nov 25 02:00:24 2023


	Wfn Parameters:
	--------------------
	Wavefunction         = CCSD_T
	Number of irreps     = 8
	Number of MOs        = 54
	Number of active MOs = 44
	AO-Basis             = NONE
	Semicanonical        = false
	Reference            = RHF
	Print Level          = 1

	IRREP	# MOs	# FZDC	# DOCC	# SOCC	# VIRT	# FZVR
	-----	-----	------	------	------	------	------
	 Ag	   13	    3	    2	    0	    8	    0
	 B1g	   2	    0	    0	    0	    2	    0
	 B2g	   6	    1	    1	    0	    4	    0
	 B3g	   6	    1	    1	    0	    4	    0
	 Au	   2	    0	    0	    0	    2	    0
	 B1u	   13	    3	    2	    0	    8	    0
	 B2u	   6	    1	    1	    0	    4	    0
	 B3u	   6	    1	    1	    0	    4	    0
	Transforming integrals...
	IWL integrals will be deleted.
	(OO|OO)...
	Presorting SO-basis two-electron integrals.
	Sorting File: SO Ints (nn|nn) nbuckets = 1
	Constructing frozen core operators
	Starting first half-transformation.
	Sorting half-transformed integrals.
	First half integral transformation complete.
	Starting second half-transformation.
	Two-electron integral transformation complete.
	(OO|OV)...
	Starting second half-transformation.
	Two-electron integral transformation complete.
	(OO|VV)...
	Starting second half-transformation.
	Two-electron integral transformation complete.
	(OV|OO)...
	Starting first half-transformation.
	Sorting half-transformed integrals.
	First half integral transformation complete.
	Starting second half-transformation.
	Two-electron integral transformation complete.
	(OV|OV)...
	Starting second half-transformation.
	Two-electron integral transformation complete.
	(OV|VV)...
	Starting second half-transformation.
	Two-electron integral transformation complete.
	(VV|OO)...
	Starting first half-transformation.
	Sorting half-transformed integrals.
	First half integral transformation complete.
	Starting second half-transformation.
	Two-electron integral transformation complete.
	(VV|OV)...
	Starting second half-transformation.
	Two-electron integral transformation complete.
	(VV|VV)...
	Starting second half-transformation.
	Two-electron integral transformation complete.
	Frozen core energy     =  -1034.79217298799676

	Size of irrep 0 of <ab|cd> integrals:      0.040 (MW) /      0.320 (MB)
	Size of irrep 1 of <ab|cd> integrals:      0.016 (MW) /      0.131 (MB)
	Size of irrep 2 of <ab|cd> integrals:      0.026 (MW) /      0.205 (MB)
	Size of irrep 3 of <ab|cd> integrals:      0.026 (MW) /      0.205 (MB)
	Size of irrep 4 of <ab|cd> integrals:      0.016 (MW) /      0.131 (MB)
	Size of irrep 5 of <ab|cd> integrals:      0.040 (MW) /      0.320 (MB)
	Size of irrep 6 of <ab|cd> integrals:      0.026 (MW) /      0.205 (MB)
	Size of irrep 7 of <ab|cd> integrals:      0.026 (MW) /      0.205 (MB)
	Total:                                     0.215 (MW) /      1.721 (MB)

	Size of irrep 0 of <ia|bc> integrals:      0.010 (MW) /      0.077 (MB)
	Size of irrep 1 of <ia|bc> integrals:      0.003 (MW) /      0.025 (MB)
	Size of irrep 2 of <ia|bc> integrals:      0.006 (MW) /      0.046 (MB)
	Size of irrep 3 of <ia|bc> integrals:      0.006 (MW) /      0.046 (MB)
	Size of irrep 4 of <ia|bc> integrals:      0.003 (MW) /      0.025 (MB)
	Size of irrep 5 of <ia|bc> integrals:      0.010 (MW) /      0.077 (MB)
	Size of irrep 6 of <ia|bc> integrals:      0.006 (MW) /      0.046 (MB)
	Size of irrep 7 of <ia|bc> integrals:      0.006 (MW) /      0.046 (MB)
	Total:                                     0.048 (MW) /      0.387 (MB)

	Size of irrep 0 of tijab amplitudes:       0.002 (MW) /      0.019 (MB)
	Size of irrep 1 of tijab amplitudes:       0.001 (MW) /      0.004 (MB)
	Size of irrep 2 of tijab amplitudes:       0.001 (MW) /      0.010 (MB)
	Size of irrep 3 of tijab amplitudes:       0.001 (MW) /      0.010 (MB)
	Size of irrep 4 of tijab amplitudes:       0.001 (MW) /      0.004 (MB)
	Size of irrep 5 of tijab amplitudes:       0.002 (MW) /      0.019 (MB)
	Size of irrep 6 of tijab amplitudes:       0.001 (MW) /      0.010 (MB)
	Size of irrep 7 of tijab amplitudes:       0.001 (MW) /      0.010 (MB)
	Total:                                     0.011 (MW) /      0.088 (MB)

	Nuclear Rep. energy          =     28.57556937618002
	SCF energy                   =  -1053.60194800773206
	One-electron energy          =    -82.54795701143647
	Two-electron energy          =     35.16261261551954
	Reference energy             =  -1053.60194800773365

*** tstop() called on log-1 at Sat Nov 25 02:00:24 2023
Module time:
	user time   =       0.09 seconds =       0.00 minutes
	system time =       0.04 seconds =       0.00 minutes
	total time  =          0 seconds =       0.00 minutes
Total time:
	user time   =     269.55 seconds =       4.49 minutes
	system time =      23.65 seconds =       0.39 minutes
	total time  =        735 seconds =      12.25 minutes
            **************************
            *                        *
            *        CCENERGY        *
            *                        *
            **************************

    Nuclear Rep. energy (wfn)     =   28.575569376180024
    SCF energy          (wfn)     = -1053.601948007732062
    Reference energy    (file100) = -1053.601948007733654

    Input parameters:
    -----------------
    Wave function   =     CCSD_T
    Reference wfn   =     RHF
    Brueckner       =     No
    Memory (Mbytes) =     524.3
    Maxiter         =     50
    R_Convergence   =     1.0e-07
    E_Convergence   =     1.0e-06
    Restart         =     Yes
    DIIS            =     Yes
    AO Basis        =     NONE
    ABCD            =     NEW
    Cache Level     =     2
    Cache Type      =     LOW
    Print Level     =     1
    Num. of threads =     1
    # Amps to Print =     10
    Print MP2 Amps? =     No
    Analyze T2 Amps =     No
    Print Pair Ener =     No
    Local CC        =     No
    SCS-MP2         =     False
    SCSN-MP2        =     False
    SCS-CCSD        =     False

MP2 correlation energy -0.3087065800926456
                Solving CC Amplitude Equations
                ------------------------------
  Iter             Energy              RMS        T1Diag      D1Diag    New D1Diag    D2Diag
  ----     ---------------------    ---------   ----------  ----------  ----------   --------
     0        -0.308706580092646    0.000e+00    0.000000    0.000000    0.000000    0.104880
     1        -0.328697109896739    3.201e-02    0.002855    0.004659    0.004659    0.113991
     2        -0.332204257823558    8.156e-03    0.003410    0.005468    0.005468    0.116599
     3        -0.332423102567403    1.534e-03    0.003673    0.005922    0.005922    0.116923
     4        -0.332426349150446    3.142e-04    0.003713    0.005985    0.005985    0.116974
     5        -0.332420545526067    6.208e-05    0.003721    0.006000    0.006000    0.116970
     6        -0.332420622331793    1.064e-05    0.003722    0.006001    0.006001    0.116969
     7        -0.332420768535449    2.679e-06    0.003722    0.006001    0.006001    0.116969
     8        -0.332420775156659    6.701e-07    0.003722    0.006001    0.006001    0.116969
     9        -0.332420771710607    1.898e-07    0.003722    0.006001    0.006001    0.116969
    10        -0.332420773073360    5.551e-08    0.003722    0.006001    0.006001    0.116969

    Iterations converged.


    Largest TIA Amplitudes:
              6  28         0.0053476754
              7  32         0.0053476754
              2  10         0.0053261602
              3  14         0.0053261602
              1   0         0.0049878721
              5  21         0.0041725592
              5  20        -0.0031169546
              4  25         0.0025223788
              0   5         0.0025178679
              1   1        -0.0023979077

    Largest TIjAb Amplitudes:
      5   5  23  23        -0.0185269967
      1   1   3   3        -0.0184360927
      1   5   3  23         0.0184306322
      5   1  23   3         0.0184306322
      1   1  23  23        -0.0179667500
      5   5   3   3        -0.0179146469
      1   5  23   3         0.0178895157
      5   1   3  23         0.0178895157
      6   6  29  29        -0.0142218732
      7   7  33  33        -0.0142218732

    SCF energy       (wfn)                    = -1053.601948007732062
    Reference energy (file100)                = -1053.601948007733654

    Opposite-spin MP2 correlation energy      =   -0.224018362614478
    Same-spin MP2 correlation energy          =   -0.084688217478167
    Singles MP2 correlation energy            =   -0.000000000000000
    MP2 correlation energy                    =   -0.308706580092646
      * MP2 total energy                      = -1053.910654587826230

    Opposite-spin CCSD correlation energy     =   -0.250564366041079
    Same-spin CCSD correlation energy         =   -0.081856407032281
    Singles CCSD correlation energy           =    0.000000000000000
    CCSD correlation energy                   =   -0.332420773073360
      * CCSD total energy                     = -1053.934368780807063

            **************************
            *                        *
            *        CCTRIPLES       *
            *                        *
            **************************


    Wave function   =    CCSD_T
    Reference wfn   =      RHF

    Nuclear Rep. energy (wfn)                =   28.575569376180024
    SCF energy          (wfn)                = -1053.601948007732062
    Reference energy    (file100)            = -1053.601948007733654
    CCSD energy         (file100)            =   -0.332420773073360
    Total CCSD energy   (file100)            = -1053.934368780807063

    Number of ijk index combinations:              120
    Memory available in words               :        65536000
    Approx. words needed per explicit thread:            2048
    Number of threads for explicit ijk threading:    1

    MKL num_threads set to 1 for explicit threading.

    (T) energy                                =   -0.005055250159880
      * CCSD(T) total energy                  = -1053.939424030966848


    Psi4 stopped on: Saturday, 25 November 2023 02:00AM
    Psi4 wall time for execution: 0:00:02.63


  //>>>>>>>>>>>>>>>>>>>>>>>>>>>>>>>>>>>//
  //          ManyBody Results         //
  //<<<<<<<<<<<<<<<<<<<<<<<<<<<<<<<<<<<//


   ==> N-Body: Counterpoise Corrected (CP) energies <==

        n-Body     Total Energy            Interaction Energy                          N-body Contribution to Interaction Energy
                   [Eh]                    [Eh]                  [kcal/mol]            [Eh]                  [kcal/mol]
             1  N/A                         0.000000000000        0.000000000000        0.000000000000        0.000000000000
  FULL/RTN   2  N/A                        -0.000030028095       -0.018842913885       -0.000030028095       -0.018842913885

CP-corrected CCSD(T)/aug-cc-pVDZ Interaction Energies

          R [Ang]                 E_int [kcal/mol]
---------------------------------------------------------
            3.5                        0.168852
            3.8                        -0.069952
            4.0                        -0.123122
            4.2                        -0.116537
            4.5                        -0.095162
            4.8                        -0.073663
            5.0                        -0.055927
            5.2                        -0.042277
            5.5                        -0.032054
            5.8                        -0.024469
            6.0                        -0.018843
